1000
Step = 0
Ar   30.54482   35.65195   3.326394    
Ar   9.425745   33.86293   4.234846    
Ar  0.1348526   5.637075   10.73939    
Ar   5.106460  0.9891830   12.15115    
Ar   3.347908   27.96508   18.40628    
Ar   2.387610   3.734462   19.82184    
Ar   29.30303   33.03407   12.96526    
Ar  0.8910819   5.853816   25.23859    
Ar   2.284489   32.13406   27.39307    
Ar   32.60186   3.276213   24.01521    
Ar   31.75358   6.194038   29.95380    
Ar   32.35723   36.11671   32.64544    
Ar   31.88993   4.325721   6.955674    
Ar   6.890073   10.00393   5.996951    
Ar   32.77737   33.99794   13.09568    
Ar   1.059788   6.886399   21.59984    
Ar   27.00221   35.83085   22.34333    
Ar   30.27484   6.361969   25.34209    
Ar   35.60854   2.517433   35.52568    
Ar   32.97352   8.212984   32.59577    
Ar   33.87407   13.03218   1.567351    
Ar   31.82466   7.636337  0.4342752    
Ar   33.33274   9.344322   11.56518    
Ar   29.80374   12.51777   2.965863    
Ar   9.562572   5.024942   15.94379    
Ar  0.4373458   6.512324   17.69097    
Ar   34.44591   9.384404   17.49294    
Ar   7.332458   16.69714   24.01913    
Ar   33.68075   5.807734   26.90943    
Ar   4.783218   11.63187   25.54363    
Ar   28.46731   19.29879   29.40795    
Ar   34.49533   10.72977   35.12379    
Ar   33.15928   11.72136   5.992294    
Ar   4.900676   13.02472   4.818057    
Ar   31.35193   30.59291   15.28059    
Ar   1.040283   9.639145   19.52576    
Ar   34.92570   6.687675   14.16116    
Ar   8.840877   7.845429   29.45374    
Ar   30.63868   12.38830   31.31240    
Ar 0.04230568   10.56612   31.09802    
Ar   2.645830   10.22984   2.032456    
Ar   33.39637   4.281860   33.00053    
Ar   36.22702   8.517099   5.479598    
Ar   29.52259   10.59083   5.982602    
Ar   1.603576   9.159932   10.27608    
Ar   34.74017   16.61033   16.52033    
Ar   26.35634   2.966368   14.70412    
Ar   1.369766   17.94370   14.48930    
Ar   1.098354   13.39418   24.82628    
Ar   3.995579   15.49648   25.26806    
Ar   9.737644   17.89951   30.01124    
Ar   36.08890   14.71627   6.900401    
Ar   35.87392   17.53021   10.80784    
Ar   1.378011   12.12864   16.66852    
Ar   8.371510   23.93027   13.75064    
Ar   7.994698   19.36898   17.62351    
Ar   29.62447   17.56608   19.74105    
Ar   33.14072   20.91239   20.69291    
Ar   3.391842   21.17283   24.72712    
Ar   35.81678   16.09104   31.92482    
Ar   5.842770   21.49095   6.412267    
Ar   32.90111   19.64823   5.780186    
Ar   5.097801   24.96927   7.952505    
Ar   35.25499   26.86879   18.23625    
Ar   34.63402   14.15658   11.36984    
Ar   8.675717   20.29952   13.93802    
Ar   30.15508   25.25763   20.89030    
Ar  0.5949043   19.83861   26.84925    
Ar   3.088267   17.97127   30.78281    
Ar   33.78517   24.76460   34.72039    
Ar   33.57923   26.47613   5.779332    
Ar   36.09316   22.41364   34.09124    
Ar   35.21294   29.21545   4.182895    
Ar   33.29996   17.92239   13.22610    
Ar   29.32479   28.28556   5.699957    
Ar   2.418124   21.38830   15.33126    
Ar   4.503528   18.54445   16.58013    
Ar 0.08560886   20.04511   30.77550    
Ar   3.871727   25.05248   27.18295    
Ar   31.51866   24.45691   31.97802    
Ar   35.98134   32.58927   10.79319    
Ar   5.780845   35.34009   5.487865    
Ar   7.587851   26.75971   11.20615    
Ar  0.9928862   29.73061   13.19117    
Ar   32.97836   29.71314   7.334090    
Ar   5.371840   21.34245   21.76658    
Ar   36.19489   30.29862   24.68986    
Ar   31.09430   28.11763   27.69591    
Ar   22.75726   29.86877   20.68566    
Ar   2.491987   28.87203   28.05570    
Ar   35.59020   32.24506   30.19550    
Ar   1.803505   29.44072   31.93872    
Ar   33.89869   1.907851   6.036228    
Ar   3.972057  0.3942528   2.427425    
Ar   34.49535   34.85823   17.03152    
Ar   30.92206   33.96139   17.26799    
Ar   9.560448   30.72761   25.47213    
Ar   33.65663   31.91138   34.82778    
Ar   34.71465  0.1170548   23.72797    
Ar   29.02566   34.55784   28.26811    
Ar   2.515019   2.361602   35.62390    
Ar   36.11262   35.52993   35.07779    
Ar   6.340743   34.23234   2.285596    
Ar   3.602616   33.10861   12.59197    
Ar   7.168593   30.49312   11.32798    
Ar   8.231725   35.93841   18.09939    
Ar   15.30918   32.08081   19.46061    
Ar   11.68370  0.2783784   26.24178    
Ar  0.8998356   35.49080   25.93292    
Ar   32.69260   35.49459   36.19110    
Ar   5.604959   36.08958   35.55920    
Ar   3.511871   10.19907   6.785312    
Ar   10.51468  0.7863909   4.593054    
Ar   5.204420   6.467248   14.84373    
Ar   1.050433   34.06663   15.14857    
Ar   4.027085   7.225553   19.46407    
Ar   3.461177   30.58880   20.57565    
Ar   4.820886   34.63001   26.47209    
Ar   6.037923   7.398110   31.71931    
Ar   5.618776   32.96382   30.26625    
Ar   6.500593   13.32308   34.11462    
Ar   7.881684   6.921703   34.61573    
Ar   7.347557   5.234941   12.11349    
Ar   33.87730   7.956632   8.584676    
Ar   34.10370   9.541754   21.30201    
Ar   32.21917   6.792836   16.67350    
Ar   4.615127   8.110016   22.97781    
Ar   33.56624   6.667868   23.46070    
Ar   5.537609   8.275124   27.93305    
Ar   1.841507   7.766453   31.44830    
Ar   4.966086   1.663302   28.47770    
Ar   35.49797   9.001782   1.977925    
Ar   35.27680   6.790728   35.27135    
Ar   6.069278   6.516886   5.341569    
Ar   3.630724   4.344782   10.87546    
Ar   6.703305   14.40259   21.45569    
Ar   6.279136   5.187407   22.39293    
Ar   7.059188   11.31757   30.63259    
Ar   6.650585   19.90222   30.45144    
Ar   3.779794   5.911962   34.28312    
Ar   2.876325   16.46062   10.73949    
Ar  0.6050015   12.15418   4.325769    
Ar   35.24162   11.37260   9.055002    
Ar   5.441520   13.65597   11.48894    
Ar   2.451828   12.98170   8.993813    
Ar   2.828770   20.96619   18.69069    
Ar   28.29480   18.69602   26.06146    
Ar   3.689033   12.76602   22.32790    
Ar   9.277022   21.38951   28.60563    
Ar   10.50960   15.76986   21.53658    
Ar   3.037347   14.53355   31.37457    
Ar   9.576115   22.03846   5.764944    
Ar   14.15142   15.98331   7.076233    
Ar   4.227053   19.34812   8.697899    
Ar   1.151415   14.53476   13.41459    
Ar   11.35593   20.24674   19.56112    
Ar   1.968783   19.48723   22.03707    
Ar   36.24793   17.02894   28.59773    
Ar  0.2000088   13.01990   21.05628    
Ar   5.228390   21.90650   27.70570    
Ar   34.17358   29.97144   27.88675    
Ar   2.832846   32.21561   3.935565    
Ar   6.052479   21.97445   11.41954    
Ar   8.065728   27.41572   14.61864    
Ar   2.797899   24.53294   19.14496    
Ar   12.88484   26.88678   19.31477    
Ar   5.137913   26.87835   21.27037    
Ar   10.18961   18.44890   26.33709    
Ar   3.130221   24.06949   22.64714    
Ar   8.902571   18.69245  0.7381618    
Ar   1.056588   17.81202   7.345026    
Ar   3.088259   29.38275   6.404034    
Ar   1.425924   26.24787   7.843938    
Ar   6.700761   28.85847   7.680328    
Ar   1.444502   26.63737   15.29180    
Ar   35.97104   22.91585   20.56538    
Ar   7.165398   31.65819   18.65857    
Ar  0.7755287   28.30267  0.7940126    
Ar   36.07892   26.83297   27.92280    
Ar   4.135151   29.26532  0.4498729    
Ar   35.51211   35.97820   30.46503    
Ar   7.399448   24.90799   4.373147    
Ar   3.263782   4.453661   6.587248    
Ar   4.138181   28.71772   10.22201    
Ar   10.14992   22.04545   16.71942    
Ar   10.45934   33.54099   17.24084    
Ar 0.02749906   33.44404   22.56029    
Ar   32.26369   25.25265   28.51410    
Ar   33.31764   27.67177  0.3128721    
Ar  0.9839263   12.88043   34.09587    
Ar   2.248419   16.19776   3.932505    
Ar  0.9509822   1.231484   10.85122    
Ar   36.26788   30.36709   17.06927    
Ar   4.689714   28.42484   13.55692    
Ar   4.739599   32.80151   16.01443    
Ar   1.226430   33.36715   18.89754    
Ar   35.62811   26.82024   24.34294    
Ar   2.976669   27.85708   24.66381    
Ar   26.68872   32.55543   26.59074    
Ar   2.686424   34.96515   33.28476    
Ar   9.042768   34.21190   26.96580    
Ar   1.781721   32.29438  0.5860595    
Ar   1.901499   7.203110   13.41684    
Ar   3.837809   36.19337   8.638223    
Ar   8.257291   31.11516   15.12978    
Ar   8.202895   7.266486   18.54977    
Ar   3.186513   11.41742   13.72189    
Ar   2.176797   9.302039   34.93564    
Ar   18.64832   4.215298   26.16462    
Ar  0.3103608   32.24300   33.50922    
Ar   5.884083   3.013627   32.80431    
Ar   6.529891   2.328660   6.552142    
Ar   11.78625   1.718430   8.388245    
Ar   8.053404   6.548034   2.351599    
Ar   4.015536   36.07041   15.43148    
Ar   2.777345   8.624347   16.51537    
Ar   8.301828   1.790421   30.45711    
Ar   36.02471   3.655454   22.57802    
Ar   6.055504   30.70090   26.86604    
Ar   4.388894   4.261884   25.73581    
Ar   2.567520   1.444635   31.51519    
Ar   7.284411   3.635669   36.25271    
Ar   10.84954   15.67229  0.4321293    
Ar  0.9467057  0.7263802   17.53481    
Ar   4.588641   7.663536  0.6607197    
Ar   6.180227   3.822298   17.92911    
Ar   16.45984  0.8952369   24.66633    
Ar   12.47675   12.22762   26.23679    
Ar   4.243015  0.9675599   24.16170    
Ar   6.917439   4.925000   28.67995    
Ar   10.02663   12.80035   2.614235    
Ar   12.48995   11.44999  0.3604748    
Ar   4.375723   6.832240   8.623393    
Ar   10.60492   19.62678   3.382855    
Ar   6.901137   9.929374   13.94206    
Ar   10.76315  0.3187108   20.64080    
Ar   5.103564   11.74291   16.75825    
Ar   8.297875   10.47466   26.67613    
Ar   8.762309   15.83087   33.62560    
Ar   5.535086   13.76607   28.35707    
Ar   9.899076   14.51963   30.32745    
Ar   9.008691   11.40266   36.00553    
Ar   7.313079   18.12391   6.786026    
Ar   9.723767   8.288337   12.37008    
Ar   5.147290   9.575345   10.86266    
Ar   4.382765   15.19877   15.29860    
Ar   3.561295   14.33446   19.24869    
Ar  0.6548437   16.32978   22.96252    
Ar   1.744293   19.02172  0.7758599    
Ar   7.064288   14.84179  0.5990980    
Ar   5.106369   17.89584  0.1082692    
Ar   6.416539   9.941879   2.252939    
Ar   5.852063   16.31534   3.582752    
Ar   12.79753   13.22234   17.98962    
Ar   5.843157   17.84118   11.79302    
Ar   1.852192   20.17021   11.42193    
Ar   1.353046   16.67697   19.17122    
Ar   10.75201   23.01284   24.73495    
Ar   9.630968   15.01077   26.54646    
Ar   6.330077   15.91244   30.76232    
Ar   1.660423   25.16861   34.50165    
Ar   10.82799   21.92881   12.01847    
Ar   4.140397   16.04286   7.139478    
Ar   7.171657   15.40054   9.025592    
Ar   10.74230   16.29438   7.756327    
Ar   12.92193   25.78567   12.45327    
Ar   14.33466   16.37346   16.72731    
Ar   13.13224   21.42885   28.49238    
Ar  0.8983239   23.79264   25.57666    
Ar   2.254235   26.16021   31.10388    
Ar   2.501687   26.01627   3.902382    
Ar   7.000249   31.50780 0.06528337    
Ar   2.382391   22.76916   9.290882    
Ar   3.171812   32.19105   8.624970    
Ar   8.802187   25.64939   7.680071    
Ar   8.917389   25.98769   21.62188    
Ar   15.94910   30.69164   25.06412    
Ar   33.41536   24.50472   22.10857    
Ar   6.737445   27.61076   24.93420    
Ar   8.558083   26.39313   30.24995    
Ar   11.88262   29.29025   34.79052    
Ar   5.152899   26.35943   32.90345    
Ar   6.586071   19.98026   3.215455    
Ar   9.745351   29.87848   5.509421    
Ar   11.08789   26.35538   16.29938    
Ar   3.765411   25.49443   11.19902    
Ar   6.191530   22.54896   17.64832    
Ar   11.90658   35.06197   13.32485    
Ar   12.97254   24.01649   33.43371    
Ar   5.508145   27.78683   28.44571    
Ar   2.176359   6.518065   3.902464    
Ar  0.1595259   32.10821   6.857828    
Ar   7.418250   33.36954   33.34924    
Ar   6.068514   31.55529   5.078897    
Ar   4.983936   25.32816   14.95939    
Ar   11.24683  0.6219216   16.64222    
Ar   5.929883   33.86229   22.46430    
Ar   11.53705   4.298372   28.96320    
Ar   35.62102   28.13276   34.24448    
Ar   14.80505   36.15104   28.42987    
Ar   16.09121   32.46243   33.59099    
Ar   9.444045   35.96901  0.9347437    
Ar   12.27761   31.19078   8.360653    
Ar   9.707660   7.671506   5.705376    
Ar   10.46820   30.12540   18.03914    
Ar   13.71187   2.791475   18.45623    
Ar   4.457037   35.03814   19.06060    
Ar   6.473663   24.11871   24.12914    
Ar   17.89260   2.202225   18.07069    
Ar   8.535573   36.36503   24.07482    
Ar   10.35208   32.76268   35.21612    
Ar   7.566171   11.65409   8.944117    
Ar   9.272590   4.024334   5.148653    
Ar   11.65756   34.30547   9.620877    
Ar   8.706039   35.69981   7.679210    
Ar   7.836271   2.014336   14.61148    
Ar   7.728801   6.646775   25.54438    
Ar   11.28428   33.50309   23.78071    
Ar   9.019800   2.299185   26.83516    
Ar   9.142544   3.450376   23.27416    
Ar   10.93467   5.523631   36.12484    
Ar   9.013370   14.71798   12.02534    
Ar   14.50435   4.251289   10.81027    
Ar   11.22464   8.247528   9.257257    
Ar   10.83375   4.803514   11.11629    
Ar   12.72785   9.986081   20.66604    
Ar   9.707729   12.62347   19.94634    
Ar   11.21986   9.184667   24.77689    
Ar   6.084198   10.17531   34.84262    
Ar   9.399509   34.70379   30.49748    
Ar   7.328277   1.051907   3.137097    
Ar   11.03097   9.319516   2.546966    
Ar   10.70201   11.05938   6.313881    
Ar   11.62263   11.63164   12.46526    
Ar   9.733996   10.24075   16.75602    
Ar   10.09299   6.879646   21.64393    
Ar   7.128508   17.45890   27.25174    
Ar   9.395749   12.97646   23.76278    
Ar   14.77049   9.395261   30.47717    
Ar   11.35134   2.689797   1.439172    
Ar   9.567242   25.36786   33.86466    
Ar   11.15739   13.04083   33.60363    
Ar   11.51130   14.80098   15.01254    
Ar   8.047516   13.03583   15.31993    
Ar   11.19029   2.247698   13.56273    
Ar   17.26591   11.15035   20.72252    
Ar   5.944840   10.63894   19.90200    
Ar   13.24515   17.69767   27.72771    
Ar   18.15108   2.805058   35.05594    
Ar   6.578680   22.40755   33.02914    
Ar   2.374665   16.73297   34.19014    
Ar   20.42703   24.34926   31.28361    
Ar   34.88097   20.85009   14.55015    
Ar   14.70248   9.736604   17.42553    
Ar   12.96216   14.67711   10.26755    
Ar   16.75999   18.11165   23.00903    
Ar   13.09375   16.47366   24.21939    
Ar   8.514663   15.92849   18.82797    
Ar   11.20750   20.03417   22.93470    
Ar   11.67314   20.00468   32.18762    
Ar   9.562621   16.05080   3.803443    
Ar   9.671851   22.62570   31.69907    
Ar   12.49524   19.53244   6.554908    
Ar   12.42505   26.33363   8.412759    
Ar   10.81084   25.80023   4.244500    
Ar   8.138910   18.48422   21.13877    
Ar   7.821844   16.91990   14.99569    
Ar   18.71513   20.71143   22.18211    
Ar   5.421802   24.21807   30.04903    
Ar   6.470779   21.68025   36.40020    
Ar   16.53385   19.58437   1.455414    
Ar   3.269808   19.51473   4.835920    
Ar   11.51180   23.06464   8.859662    
Ar   8.908260   20.44944   9.345829    
Ar   14.29709   28.73480   10.52613    
Ar   10.59576   32.03754   11.80067    
Ar   15.34662   20.92788   21.57028    
Ar   12.08283   28.74516   28.26744    
Ar   7.272505   28.43411   34.66203    
Ar   3.025437   22.65413 0.07035689    
Ar   8.891994   27.06557   1.191793    
Ar   15.95812   23.86466  0.9526758    
Ar   13.00209   28.76954   6.124427    
Ar   16.60210   30.43688   8.925422    
Ar   14.00497   23.25831   19.14472    
Ar   11.89576   29.85988   14.22142    
Ar   10.02129   33.01738   20.83847    
Ar   3.732374   32.13276   24.20618    
Ar   8.633848   29.89839   29.29120    
Ar   11.69035   32.54949   29.22024    
Ar   9.849756   30.99021   1.923494    
Ar   18.25617   32.82903   10.81539    
Ar   8.563569   31.94390   8.650649    
Ar   9.259052  0.3928552   11.35195    
Ar   8.232420   34.27852   14.00644    
Ar   14.50104  0.1123905   15.63925    
Ar   12.92637   2.121500   22.77037    
Ar   13.43131   32.91911   15.37898    
Ar   6.273110   1.245493   21.10999    
Ar   16.44287   29.09520   28.84485    
Ar   5.811070   36.21731   31.55294    
Ar   12.52393   32.45776   4.584664    
Ar   13.37391   3.193096   5.411149    
Ar   18.16860  0.3551652   10.39889    
Ar   17.95652   4.275996   15.23939    
Ar   17.92693   5.636014   11.95373    
Ar   16.88556   1.413036   13.48507    
Ar   17.66629   33.79852   25.97869    
Ar   20.04505   36.16164   27.14102    
Ar   11.83881  0.9936400   30.06518    
Ar   8.630704  0.7050553   33.74929    
Ar   4.844199   3.897131   2.813302    
Ar   14.30486   4.285300   1.678668    
Ar   7.723388   5.210405   7.975693    
Ar   13.28065   5.271600   15.61603    
Ar   9.878697   3.127932   18.93312    
Ar   15.09790   3.060629   31.25637    
Ar   17.03997   33.65485   16.77336    
Ar   11.95199   6.838887   31.86336    
Ar   23.37676   10.41483   34.13475    
Ar   15.70182  0.9511353   2.787502    
Ar   12.22406   36.34124   34.87147    
Ar   14.87351   36.07761   31.91484    
Ar   11.95102   6.913198   18.33158    
Ar   13.05806   8.547876   5.379472    
Ar   16.41342   7.373332   14.71944    
Ar   7.578084   9.886035   22.86035    
Ar   11.83508   5.082724   24.88673    
Ar   11.06964   2.967125   32.93813    
Ar   14.95500   3.510565   27.64396    
Ar   14.45494   4.404910   34.65156    
Ar   14.15280   7.835882 0.01240699    
Ar   15.58930   5.818525   4.979799    
Ar   16.23604   11.06759   11.88388    
Ar   13.13949   8.253308   12.65683    
Ar   18.35020   8.584423   18.33193    
Ar   15.72071   8.261895   22.45108    
Ar   22.98213   19.20897   11.46482    
Ar   12.73260   7.440518   27.68731    
Ar   26.07709   8.147095   33.33961    
Ar   16.82679   12.36088   31.73079    
Ar   13.02164   13.29086   30.32922    
Ar   21.71883   16.58159   4.403075    
Ar   14.14089   14.76762  0.8106171    
Ar   18.97364   9.342174   12.63339    
Ar   16.79994   13.96046   17.85822    
Ar   26.31208   15.76515   15.86693    
Ar   16.37234   16.46851   26.59182    
Ar   14.83814   9.260325   25.77462    
Ar   16.51360   6.349566   32.30636    
Ar   15.96183   17.86581   34.93208    
Ar   10.39909   21.79856   35.15714    
Ar   10.90175   17.72074   13.02338    
Ar   16.66066   14.48333   10.27924    
Ar   13.55781   19.63825   13.82991    
Ar   11.28690   18.26409   16.38814    
Ar   15.22756   14.82353   20.65239    
Ar   14.05569   20.40661   24.94552    
Ar   14.73716   20.09900   17.59005    
Ar   13.03048   10.11136   33.57387    
Ar   17.08049   24.61365   34.25335    
Ar   13.07346   23.51964   5.986922    
Ar   15.45763   21.65632   7.791070    
Ar   8.435779   13.81447   6.036825    
Ar   13.10471   18.61330   10.46121    
Ar   16.63720   19.24858   10.72600    
Ar   8.131536   20.74719   24.81487    
Ar   19.75071   24.50494   22.14614    
Ar   16.63913   13.36507   5.356004    
Ar   19.66316   23.91395   27.41600    
Ar   14.91672   21.45263   34.70880    
Ar   15.83634   25.99389   7.538936    
Ar   16.36674   21.15904   14.83397    
Ar   14.59887   22.32861   10.90125    
Ar   15.39115   25.80193   17.18068    
Ar   7.144239   30.35698   21.94835    
Ar   7.994796   24.86676   27.14935    
Ar   17.64937   27.07098   24.37253    
Ar   14.06708   23.86519   26.25948    
Ar   12.38701   26.55443  0.7475234    
Ar   5.483933   25.37887  0.4452221    
Ar   16.28725   29.10129   36.04698    
Ar   14.43564   31.93620   11.80277    
Ar   13.13691   29.27465   2.812761    
Ar   13.74536   29.78874   17.19630    
Ar   19.18606   27.77853   20.84866    
Ar   26.23698   25.62925   20.62554    
Ar   10.75670   27.63286   25.02389    
Ar   20.62410   17.45843   29.50214    
Ar   4.253806   31.43297   33.75262    
Ar   9.322438   23.34639   1.660840    
Ar   17.16516   29.26357   4.331464    
Ar   10.35874   28.95812   10.13508    
Ar   6.443572   34.23691   10.38127    
Ar   17.45613   29.55214   17.85648    
Ar   11.09149   29.45776   22.00186    
Ar   16.65465   23.27000   24.06651    
Ar   13.31680   35.06992   18.78178    
Ar   19.31086   34.29390   22.68844    
Ar   27.50573  0.9432446   31.91687    
Ar   13.85595   33.74176   25.98882    
Ar   14.81689   25.90598   3.709736    
Ar   18.76131   30.97013   1.866832    
Ar   18.15505   32.58178   6.566795    
Ar   21.33955   3.226562   9.935297    
Ar   23.86896   5.174623   17.37967    
Ar   18.10716   31.21858   21.57903    
Ar   21.41309   7.546262   21.27562    
Ar   21.31228   3.700548   22.93432    
Ar   12.40544   33.65393   32.54888    
Ar   16.26261   6.891607   28.13013    
Ar   23.17808   11.30839   5.941089    
Ar   17.51571   11.17342   15.44516    
Ar   23.30210   1.840742   15.43575    
Ar   15.81222   4.288014   23.95580    
Ar   16.71019   2.062378   21.29122    
Ar   13.77678   5.577849   21.06837    
Ar   20.27213   7.023840   14.97474    
Ar   19.57989   5.808701   30.91106    
Ar   19.70474   10.95423   26.73892    
Ar   20.47759   7.419350   27.32932    
Ar   23.73086   5.979126   7.967720    
Ar   18.71985   5.691272   1.992057    
Ar   16.47957   9.852280   35.11746    
Ar   14.44289  0.4075455   10.77812    
Ar   25.00096   6.955254   14.34834    
Ar   19.02036   15.08440   22.03761    
Ar   18.56712   8.103640   24.30387    
Ar   10.93696   10.81516   29.36776    
Ar   18.59058   16.29580   32.03300    
Ar   11.74826   6.062435   3.369905    
Ar   18.99755   9.282030   2.385323    
Ar   19.65775   19.49412   3.920258    
Ar   22.54824   10.16640   9.099159    
Ar   16.58654   5.548893   18.41085    
Ar   20.26171   12.30165   19.09258    
Ar   20.18659   14.98909   17.27271    
Ar   16.57041   12.84071   24.26724    
Ar   20.10277   11.43756   22.79327    
Ar   15.65495   13.10480   27.70577    
Ar   20.19567   12.62861   4.706761    
Ar   13.74192   17.72468   3.533124    
Ar   14.92091   8.131863   9.680371    
Ar   21.20874   12.89021   11.55372    
Ar   14.42381   12.50555   14.60186    
Ar   22.33797   25.68869   14.58126    
Ar   14.01840   17.77606   20.51102    
Ar   19.90285   17.18701   25.98013    
Ar   9.541183   9.775409   32.65609    
Ar   22.42378   10.01506   30.35122    
Ar   17.32092   12.52453   1.815848    
Ar   19.96739   9.151770   33.37206    
Ar   18.75808   20.49635   7.376154    
Ar   12.73005   13.42154   4.540760    
Ar   18.81774   16.47089   6.912098    
Ar   14.92584   16.40882   13.19877    
Ar   20.78813   18.69164   18.85767    
Ar   12.30198   16.68985   32.42117    
Ar   11.43811   25.00987   28.73600    
Ar   15.58151   15.81529   30.15433    
Ar   18.43236   14.74151   35.01368    
Ar   22.04070   20.02213   33.92627    
Ar   18.85240   26.91839   1.686606    
Ar   21.42564   18.18907   8.422676    
Ar   19.37179   25.51422   5.148514    
Ar   23.29358   24.23189   18.43306    
Ar   18.63368   23.52528   8.675808    
Ar   21.64028   21.97816   25.17142    
Ar   19.50681   31.52290   34.79387    
Ar   16.33137   22.77428   29.81367    
Ar   17.05256   26.80042   31.30330    
Ar   20.38726   11.73630   36.36972    
Ar   17.81906   21.73495   18.20361    
Ar   13.35774   23.80714   15.56475    
Ar   23.60458   25.84369   6.928072    
Ar   16.60221   24.50817   20.76071    
Ar   8.820147   22.42064   20.94099    
Ar   20.87725   28.36658   30.56430    
Ar   20.70078   21.34814   29.44977    
Ar   14.27686   27.72843   25.57672    
Ar   15.35684   33.01470   29.77561    
Ar   21.35819   24.72046   34.99599    
Ar   19.45429   28.03264   33.92620    
Ar   27.54808   32.67201   16.72318    
Ar   25.50050   26.72320   16.96759    
Ar   20.32859   28.83564   13.31555    
Ar   23.75566   30.41616   16.74403    
Ar   12.99888   25.41964   22.68216    
Ar   20.80554   27.35443   26.27912    
Ar   9.909888   30.81541   32.26421    
Ar   13.42513   30.16290   31.51195    
Ar   20.30902   33.60580   3.529098    
Ar   15.86827   1.856509   7.583545    
Ar   22.31124   31.99245   11.19619    
Ar   16.28344   33.87718   2.119147    
Ar   20.56335   2.346163   13.47502    
Ar   16.43181   34.41100   13.56933    
Ar   16.78693   25.98083   27.44025    
Ar   18.14730   1.190089   29.79647    
Ar   19.77160   35.07065   35.88757    
Ar   13.77391   31.78007   36.37114    
Ar   12.24629   5.426612   7.683614    
Ar   18.41739   36.13400   6.216140    
Ar   24.43568   1.685754   21.62144    
Ar   22.46383   34.88146   16.62539    
Ar   28.93299   33.46221   20.04562    
Ar   23.67497  0.3553464   28.33104    
Ar   27.61832   6.981895   23.05861    
Ar   21.78336   3.857119   27.22311    
Ar   27.01584   31.14158   36.04324    
Ar   18.04804   3.031916   4.662410    
Ar   12.79663   35.50230   1.756041    
Ar   17.04136   5.457311   8.202392    
Ar   20.19791   5.263173   18.32403    
Ar   19.32141 0.07490569   15.77088    
Ar   25.27725   9.764392   16.08616    
Ar   24.93436   8.177001   19.82544    
Ar   28.94780   9.809887   27.82979    
Ar   21.91276   35.96531   24.16960    
Ar   20.31610   1.154654   32.69934    
Ar   20.59746   5.573295   35.18020    
Ar   20.03982   7.709432   5.291927    
Ar   19.52601  0.7424171   2.544965    
Ar   21.57438   7.357045   11.47461    
Ar   21.27243   11.61640   15.19154    
Ar   21.57122   18.10396   15.05066    
Ar   18.13519   6.056414   21.64264    
Ar   23.20828   6.117368   24.70701    
Ar   28.62265   14.14865   34.54065    
Ar   25.61870   9.084375   29.49817    
Ar   12.73333   18.97436   36.12534    
Ar   14.93846   10.04325   2.525814    
Ar   22.70894   8.428647  0.6127083    
Ar   23.35608   9.849348   12.90283    
Ar   22.06492   9.464359   24.86408    
Ar   29.93927   12.61139   12.74123    
Ar   24.49123   5.074490   21.57862    
Ar   28.09676   14.71317   25.74372    
Ar   18.93786   9.820402   30.00657    
Ar   25.85577   6.149783   1.293066    
Ar   16.80324   9.427535   5.645237    
Ar   23.71961   6.148437   4.124854    
Ar   16.39007   18.95187   5.344894    
Ar   30.85828   7.400923   13.10772    
Ar   19.97562   22.44348   15.94349    
Ar   27.24327   5.217667   19.15408    
Ar   21.53098   14.04443   25.23001    
Ar   13.10283   12.89429   22.86228    
Ar   24.25161   13.57761   32.34891    
Ar   21.89217   3.676029   2.102214    
Ar   20.89346   13.16327   32.27092    
Ar   19.83069   18.08160   35.81374    
Ar   24.08668   15.54988   10.56079    
Ar   18.81717   14.07004   14.06474    
Ar   22.27270   15.60547   20.52579    
Ar   23.18645   20.85174   17.49089    
Ar   32.17800   22.26115   25.33375    
Ar   14.98892   18.92223   31.64069    
Ar   22.99798   18.63660   1.626938    
Ar   20.96897   14.94749   1.256182    
Ar   20.25465   23.03643   1.695807    
Ar   25.46372   19.35439   8.622461    
Ar   27.17501   20.70499   1.420922    
Ar   21.36525   22.63072   5.891742    
Ar   24.34662   32.62429   2.463211    
Ar   17.44029   17.76100   18.61096    
Ar   30.75979   27.49420   17.83277    
Ar   28.71167   21.97281   24.03506    
Ar   17.03452   19.09442   28.69796    
Ar   22.12972   22.23472   9.288518    
Ar   12.57816   22.63565   2.092551    
Ar   18.23033   16.00303   3.066595    
Ar   16.66605   25.59823   11.63218    
Ar   22.05138   25.37626   10.89758    
Ar   19.94821   24.92851   18.60154    
Ar   18.39136   26.27425   15.15918    
Ar   17.92401   17.65262   14.97046    
Ar   22.55681   21.79395   21.38419    
Ar   29.78487   23.12259   34.56572    
Ar   18.17602   20.19316   31.98453    
Ar   18.85331   21.62126   35.15063    
Ar   17.64051   22.37314   4.210200    
Ar   18.76484   27.53619   9.698768    
Ar   23.31972   31.47417   5.703416    
Ar   27.80796   29.19459   16.28885    
Ar   15.14978   28.57298   22.00041    
Ar   21.03457   28.29134   17.19208    
Ar   20.99239   30.19190   23.88517    
Ar   23.87231   26.50689   32.05786    
Ar   18.23991   31.37671   30.78922    
Ar   14.05412   35.80839   5.628911    
Ar   22.87191   36.09055   5.827311    
Ar   28.25047   34.74162   9.762113    
Ar   19.61632   32.03152   14.90490    
Ar   15.77308   34.28049   8.794385    
Ar   20.54078   31.79841   18.46705    
Ar   14.57208   34.43401   22.08637    
Ar   17.22764   35.41194   19.74716    
Ar   18.22848   34.77851   32.51407    
Ar   21.71575   29.45566   1.198337    
Ar   27.24509   4.793841   8.135880    
Ar   22.19539   2.662151   35.11185    
Ar   20.87603   34.22830   8.688704    
Ar   31.33714   32.97211   9.817111    
Ar   17.04200   29.70323   13.17756    
Ar   24.07737   2.421673   25.02470    
Ar   27.30964   35.91318   14.96823    
Ar   25.24558   29.23993   23.38170    
Ar   25.24933   32.88454   23.34231    
Ar   24.31703   5.892174   28.94523    
Ar   26.82479   34.38693   33.93323    
Ar   21.61587   3.526522   6.030540    
Ar   25.01068   1.642070   8.152434    
Ar   25.68707   2.108436   18.25715    
Ar   26.24134   31.90991   11.40346    
Ar   31.06561  0.6670282   15.25340    
Ar   27.92036   3.044473   22.10585    
Ar   26.35114   2.333588  0.7206457    
Ar   27.37294   2.726032   28.54720    
Ar   23.51859   3.123788   30.96852    
Ar   23.00832   6.518619   32.24020    
Ar   16.08356   36.03206   35.86668    
Ar   27.51878   35.60079   6.018545    
Ar   18.47219   8.881928   9.390455    
Ar   19.89104  0.5844353   20.68090    
Ar   13.73288   11.99824   8.282685    
Ar   30.77653   7.159079   20.80483    
Ar   25.60774   8.334182   26.22778    
Ar   29.30894   10.09046   23.72555    
Ar   34.85874   11.34527   26.89517    
Ar   27.39667   4.581026   31.98029    
Ar   30.15170   6.768161   8.993490    
Ar   24.04119   13.90963   3.521716    
Ar   25.11673   16.31170   6.000568    
Ar   18.88392   11.95780   7.948735    
Ar   31.80114   12.76685   20.71908    
Ar   25.40217   10.01477   22.74777    
Ar   27.15285   4.776607   25.34455    
Ar   27.00804   11.63197   32.38421    
Ar   29.40125   8.660836   31.33257    
Ar   23.29203   19.74340   5.163288    
Ar   28.39997   17.17161   7.411085    
Ar   20.68580   16.38091   11.79959    
Ar   26.47503   10.96420   11.94337    
Ar   27.87020   12.44165   16.20963    
Ar   24.31396   18.73080   20.65275    
Ar   21.42077   18.51451   22.94227    
Ar   24.85472   12.16444   25.75236    
Ar   24.09971   14.19177   36.03687    