1000
Step = 0
Ar   33.44794   1.805926   35.40214    
Ar   34.87255   34.71893  0.1297082    
Ar   1.213577  0.8611905   6.050956    
Ar   2.040123  0.1429091   10.40193    
Ar   34.45112   35.96939   18.16332    
Ar   1.397116   35.35857   19.14070    
Ar   2.245538   33.49384   22.98061    
Ar   35.88684   1.766261   26.11261    
Ar   36.24308   35.05635   28.96260    
Ar   35.90370   2.092029   31.69835    
Ar   33.92725   6.146810  0.4856278    
Ar  0.2018033   3.274688  0.9871349    
Ar   36.24859   4.191037   7.065747    
Ar   33.24762   4.991154   9.656749    
Ar   34.94954   3.769285   15.11420    
Ar  0.8658760   2.053786   17.57808    
Ar   33.83329   2.945788   22.53739    
Ar  0.9179726   4.653798   24.73403    
Ar   3.764901   36.01574   29.85074    
Ar   35.75819   4.659393   34.08680    
Ar   35.18801   9.676055 0.09974464    
Ar   2.173829   4.531630   3.866032    
Ar  0.1958693   7.670286   5.907651    
Ar   34.40960   8.889862   9.775077    
Ar   35.94107   6.227704   11.90335    
Ar  0.5679221   5.838021   18.07900    
Ar  0.1433209   6.561133   21.84019    
Ar   1.906848   8.204672   24.93572    
Ar   35.14992   7.494539   27.22941    
Ar  0.1536598   6.972713   31.38927    
Ar   2.266983   11.22076  0.1297986    
Ar   36.39115   7.467741   2.452930    
Ar   32.91112   11.94859   8.314993    
Ar 0.01219010   10.74284   7.477489    
Ar   35.44189   8.176439   14.92955    
Ar   1.529839   9.529456   18.56523    
Ar   1.134674   11.23461   22.39626    
Ar   2.299798   12.08533   25.95793    
Ar   36.30090   12.01937   30.19885    
Ar   35.10299   11.18278   33.24197    
Ar  0.8553376   13.89804   2.819632    
Ar   35.93651   10.70823   3.232393    
Ar  0.8280090   15.75172   6.784174    
Ar   35.12442   13.92463   11.44481    
Ar   35.19778   12.76361   14.75391    
Ar 0.07866497   14.00192   17.83901    
Ar   33.17302   10.24745   17.01694    
Ar   34.40215   14.06985   23.24704    
Ar   35.53678   13.96608   27.38419    
Ar   3.571098   13.88996   32.59773    
Ar  0.8862249   17.31629  0.9019508    
Ar   2.011318   17.67490   4.055149    
Ar   33.73433   16.16008   9.144489    
Ar   2.236501   16.65227   10.30947    
Ar   1.274355   20.35981   14.55348    
Ar   1.763657   18.28817   17.52117    
Ar   36.32110   19.58165   20.18308    
Ar   35.67148   18.84491   23.61217    
Ar 0.06998186   16.68639   29.72314    
Ar   1.448643   17.65183   33.27544    
Ar   1.186612   20.71692   2.568765    
Ar   1.766870   20.32924   6.792515    
Ar  0.1304726   22.90802   8.532771    
Ar   35.67412   22.98530   12.85781    
Ar   34.23357   20.80197   15.40695    
Ar   3.159957   21.43603   19.63904    
Ar   34.80872   24.08404   25.20272    
Ar  0.1139214   20.90517   27.10951    
Ar   36.35984   21.13681   30.66381    
Ar  0.5509127   24.06504   1.238466    
Ar   34.23902   26.45378   2.449644    
Ar   1.450986   23.32977   4.943520    
Ar   35.66463   25.88827   5.988801    
Ar   36.28344   26.57286   9.988559    
Ar   33.94219   26.33227   12.68004    
Ar  0.1629026   23.50364   16.66865    
Ar   1.566065   24.72160   20.22887    
Ar   32.63520   22.50564   27.46334    
Ar   35.73280   24.07649   28.92124    
Ar   2.423587   26.88336   33.54489    
Ar   1.009501   28.60950   1.556149    
Ar   36.13391   30.02568   4.380050    
Ar  0.2369706   29.97103   8.378230    
Ar   35.28626   30.56553   13.12239    
Ar   35.54804   27.90004   16.00798    
Ar   1.436215   28.09561   18.59412    
Ar  0.3887812   27.85912   21.95180    
Ar   34.17287   28.22266   24.85065    
Ar   35.41180   28.21107   28.52663    
Ar   34.58736   28.32482   31.85690    
Ar   2.137197   32.06618   34.67845    
Ar  0.7765551   32.30432   1.718914    
Ar   35.84699   32.92964   6.455730    
Ar   33.65405   33.90160   12.52876    
Ar  0.5394741   35.55560   15.64848    
Ar  0.5216202   31.89535   20.05549    
Ar   35.27642   32.15283   23.26121    
Ar   1.690321   35.56001   25.81752    
Ar   35.45287   31.42293   27.28382    
Ar   35.60702   31.91832   31.48973    
Ar   2.711280   1.630607   33.14975    
Ar   3.496723   35.21179   3.350174    
Ar   2.739266   34.48338   7.465402    
Ar   5.673502   34.64792   10.33572    
Ar   3.190781   1.115077   14.30579    
Ar   4.600848   1.334724   18.31747    
Ar   4.295688   34.16394   20.00764    
Ar   5.730116   35.74144   24.48803    
Ar   6.788589   35.22251   28.17619    
Ar  0.8983489   35.03358   32.39199    
Ar   3.559856   2.777098  0.1624786    
Ar   5.290130   1.855372   3.747661    
Ar   4.452808   2.903222   9.403028    
Ar  0.5056512   3.247866   11.50340    
Ar   1.982909   4.816618   14.72137    
Ar   3.960347   4.377141   20.40926    
Ar   2.642262   1.055880   22.30303    
Ar   3.206354   2.337845   26.50588    
Ar   2.930758   4.520863   31.12547    
Ar   5.606184   3.734624   33.01067    
Ar   1.892658   6.744602   35.28989    
Ar   3.984495   8.018994   2.450514    
Ar   3.900058   5.965380   7.352091    
Ar   2.005776   8.178259   9.183245    
Ar   2.115493   11.13401   15.41115    
Ar   4.079619   7.857116   14.59560    
Ar   4.976804   6.584376   23.51513    
Ar   2.363378   6.015318   27.90348    
Ar   2.106657   9.244133   29.48634    
Ar   5.128298   7.695466   33.40883    
Ar   5.528839   9.702160   36.24143    
Ar   4.337723   11.76476   2.791878    
Ar   3.285425   9.478696   5.820059    
Ar   4.537454   10.25213   11.11935    
Ar  0.8027859   10.63345   12.19523    
Ar   4.589182   10.15389   17.52679    
Ar   4.103362   8.607701   20.83410    
Ar   5.103908   10.20810   24.02773    
Ar   4.921461   11.62646   30.18870    
Ar   2.233537   9.702443   33.10982    
Ar   5.698346   15.78239   3.409840    
Ar   3.363853   13.62524   5.727606    
Ar   4.527385   14.20839   9.847627    
Ar   2.168988   13.97318   12.92911    
Ar   4.670431   13.81015   16.14053    
Ar   3.097411   13.06268   20.07581    
Ar  0.4992508   15.61704   21.06956    
Ar   3.726607   13.82051   23.38871    
Ar   2.349388   14.14648   28.78025    
Ar   4.332228   15.18497   36.28758    
Ar  0.7358125   20.76933   35.16622    
Ar   5.851307   19.25674   4.670781    
Ar   4.360013   17.02555   7.350453    
Ar   7.017396   17.45858   9.878386    
Ar   2.886540   17.04666   14.12389    
Ar   4.956060   15.96895   19.15175    
Ar   3.155030   17.81164   21.37684    
Ar  0.6772027   16.05393   25.24933    
Ar   3.572219   17.64995   27.12592    
Ar   4.251896   18.84853   32.05053    
Ar   2.881392   22.76199   31.90779    
Ar   5.126292   22.40127   2.902395    
Ar   1.746454   20.26269   10.90296    
Ar   3.109268   24.68199   10.90898    
Ar   3.447591   22.98863   14.59480    
Ar   6.459407   22.86977   19.52386    
Ar   1.514914   21.37529   22.70443    
Ar   4.638880   20.32769   24.27352    
Ar   3.229435   22.95136   26.45765    
Ar   3.124948   20.34206   29.03038    
Ar   3.721322   23.75646   35.82857    
Ar   3.775068   26.46478   2.915644    
Ar   3.990425   23.80108   7.076476    
Ar   3.009013   27.24770   8.792993    
Ar   1.396013   25.76882   13.94296    
Ar   5.691207   26.85790   19.73968    
Ar   5.044997   24.51238   22.72845    
Ar   5.239228   25.63102   26.85449    
Ar   2.128249   26.02145   29.27708    
Ar   6.855646   24.25341   32.72032    
Ar   4.440957   29.71197   36.01581    
Ar   3.523625   31.53831   5.691864    
Ar   2.333900   28.10733   5.360346    
Ar   1.671317   28.71145   12.29793    
Ar   3.921129   28.67191   14.80641    
Ar   4.057949   30.66470   21.07608    
Ar   4.733697   28.37289   23.89524    
Ar   1.743857   26.23115   25.55265    
Ar   4.129644   29.44626   27.79139    
Ar   1.897989   29.39377   30.89251    
Ar   5.658587   32.57467   2.473904    
Ar   36.35142   35.72272   2.980724    
Ar   4.092402   31.67033   9.537158    
Ar   1.087689   32.94538   10.00973    
Ar   2.358724   33.23510   13.74002    
Ar   1.464846   31.50430   16.68715    
Ar   1.773008   30.42517   24.71744    
Ar   4.379929   32.83411   25.75551    
Ar   2.480844   32.75656   28.77743    
Ar   4.331208   31.96148   31.58215    
Ar   6.630752   35.86620   1.370201    
Ar   8.729185   35.94927   4.398505    
Ar   5.622670   36.38572   7.153463    
Ar   7.711944   35.37808   13.33279    
Ar   4.347682   34.53277   16.42337    
Ar   6.877525   1.156429   15.95259    
Ar   7.604520   35.94830   20.90260    
Ar   6.907621   2.369129   26.60592    
Ar   9.502477  0.7252472   29.61009    
Ar   5.494741  0.3221741   34.30685    
Ar   7.440021   2.784744 0.03929529    
Ar   8.691640   3.009062   3.181376    
Ar   6.986520   3.418118   6.542499    
Ar   8.171966   3.452206   10.30097    
Ar   5.722676   3.366889   13.39056    
Ar   9.113990   4.440227   16.12642    
Ar   6.509417   3.341460   22.85137    
Ar   6.191778   5.890487   26.64928    
Ar   6.425153   1.646458   30.73505    
Ar   9.061644   1.382380   33.74526    
Ar   5.493184   5.747829   36.33393    
Ar   6.728568   5.817824   3.534148    
Ar   6.612856   8.086734   6.264531    
Ar   6.683484   7.016893   9.914499    
Ar   3.489889   5.878958   11.57844    
Ar   5.010173   4.753564   16.52717    
Ar   7.726947   5.899153   20.70601    
Ar   8.372764   7.974976   23.38631    
Ar   5.468130   7.930835   29.53590    
Ar   8.763287   6.427767   32.93710    
Ar   8.688157   10.70784   35.62819    
Ar   8.345742   9.499636   2.618386    
Ar   5.922133   11.73974   6.898118    
Ar   9.145716   10.51123   8.084167    
Ar   5.757247   11.02613   14.47190    
Ar   7.138073   8.313739   18.15349    
Ar   7.258423   12.89209   18.50042    
Ar   8.058007   11.20783   21.18708    
Ar   6.993442   10.30994   27.21037    
Ar   7.673023   9.611950   32.07959    
Ar   7.705995   15.87890   35.12465    
Ar   7.724724   13.26344   1.425560    
Ar   7.165702   15.31613   6.653351    
Ar   7.587171   13.30217   11.69416    
Ar   5.960048   15.89556   13.40588    
Ar   7.476635   16.55063   16.41990    
Ar   6.742270   14.77046   21.94464    
Ar   5.417580   14.40153   26.41843    
Ar   6.317229   16.28507   32.08455    
Ar   6.660258   12.67465   33.54076    
Ar   4.848822   18.99207   1.359646    
Ar   9.049678   16.84594   1.960547    
Ar   9.067487   19.93938   7.340235    
Ar   8.710570   18.75583   13.80168    
Ar   5.156122   19.84597   12.83968    
Ar   5.034947   19.99285   16.60909    
Ar   9.699721   17.68904   21.88488    
Ar   7.467418   18.76770   24.26546    
Ar   9.506619   14.42031   29.06208    
Ar   9.926276   18.01062   30.80993    
Ar   7.337460   22.50414 0.07383952    
Ar   8.709141   21.06727   2.911660    
Ar   7.238769   22.68462   6.572547    
Ar   5.051222   20.49201   8.721074    
Ar   6.992085   22.87291   13.76311    
Ar   10.67041   24.26678   15.01309    
Ar   6.999674   19.09862   19.57432    
Ar   11.14994   20.30274   24.53631    
Ar   7.097672   18.60322   28.15938    
Ar   7.288953   20.58663   31.55630    
Ar   6.221151   26.74418   35.48527    
Ar   7.844989   25.19907   2.425180    
Ar   7.156345   26.17637   7.336667    
Ar   5.279468   25.95228   12.98013    
Ar   4.706748   25.29149   16.73961    
Ar   8.408564   25.11109   17.90910    
Ar   8.713278   22.16558   22.28751    
Ar   6.879300   23.00811   25.29159    
Ar   5.679738   22.95168   29.29675    
Ar   10.05823   23.37948   30.90673    
Ar   6.322662   32.69264   35.31805    
Ar   7.187169   29.11800   1.970150    
Ar   8.479274   29.44747   5.921937    
Ar   6.275433   28.25844   10.47113    
Ar   7.775023   28.68899   15.44295    
Ar   5.659087   31.25181   17.45801    
Ar   7.459067   29.25645   21.51624    
Ar   7.647902   30.31431   24.97537    
Ar   8.073641   28.64517   28.51528    
Ar   5.405977   28.69425   31.92539    
Ar   2.611044   35.41998   36.06563    
Ar   8.935173   32.02516   3.239664    
Ar   7.782913   33.16118   6.575470    
Ar   7.865442   31.93673   9.897285    
Ar   5.175933   31.36409   12.91963    
Ar   7.822983   34.32781   16.87206    
Ar   6.804793   33.01184   22.38704    
Ar   11.00469   34.48719   22.57592    
Ar   7.146007   31.89017   29.01144    
Ar   6.983187   34.41078   31.65420    
Ar   12.09407  0.4900012   36.15197    
Ar   11.86690   1.608965   3.011330    
Ar   10.50096   2.114038   6.742627    
Ar   12.80520  0.3641121   8.667412    
Ar   10.54270   36.04105   15.62250    
Ar   11.77973   2.133174   18.21957    
Ar   8.456134   2.589322   19.80572    
Ar   12.62617   34.20081   26.53084    
Ar   11.45657   2.090520   26.86784    
Ar   10.60071   33.87130   30.86421    
Ar   10.79716   3.734876   35.97771    
Ar   11.12144   5.351952   3.415200    
Ar   10.07112   5.344415   7.441815    
Ar   10.80056   6.104637   11.42098    
Ar   9.356687   2.039627   13.31192    
Ar   12.50877   4.552849   14.57074    
Ar   10.10024   5.273012   26.12209    
Ar   9.450000   1.004084   23.87015    
Ar   9.599561   4.425409   29.65925    
Ar   12.12868   2.472972   31.12342    
Ar   8.727205   7.010720 0.05170342    
Ar   11.13855   8.650838   5.046949    
Ar   12.42899   8.315408   8.716392    
Ar   8.011387   9.500889   11.89773    
Ar   7.385839   7.495823   14.56092    
Ar   11.82110   6.270408   17.88964    
Ar   10.51061   8.677932   20.35458    
Ar   13.44318   5.944391   24.49532    
Ar   9.346911   8.410269   29.29401    
Ar   12.19755   6.201690   33.37596    
Ar   12.13088   11.16687  0.9428007    
Ar   11.60335   14.37957   3.181903    
Ar   13.36041   12.17600   7.727452    
Ar   11.28355   10.97599   10.99570    
Ar   8.547942   12.66569   15.15404    
Ar   10.98968   10.33825   17.10471    
Ar   10.69728   11.61225   24.58884    
Ar   10.68802   8.727586   26.24497    
Ar   11.52608   11.36766   30.16521    
Ar   11.61980   9.488701   34.20107    
Ar   12.48603   17.02866   1.105741    
Ar   10.47517   16.73995   6.499595    
Ar   9.200682   13.93103   8.984763    
Ar   10.16838   15.05690   13.13794    
Ar   11.29489   14.27514   16.79245    
Ar   14.06593   14.02747   20.39317    
Ar   10.43612   14.60809   20.22897    
Ar   13.27370   13.81444   27.14673    
Ar   10.56588   14.03320   32.56887    
Ar   10.71681   14.20432   36.04813    
Ar   7.846549   19.45012   35.06173    
Ar   11.50684   19.43942   3.923907    
Ar   11.10100   17.56704   10.01590    
Ar   12.67601   17.76881   14.94755    
Ar   10.18631   20.28471   16.99294    
Ar   12.72446   17.68003   18.83963    
Ar   11.95588   15.09863   23.23338    
Ar   8.546832   15.33734   25.23180    
Ar   13.99650   21.63086   26.67759    
Ar   10.46033   21.00397   27.89761    
Ar   11.37499   20.43893  0.3462247    
Ar   11.02630   23.59913   2.297390    
Ar   12.01053   22.56853   5.930299    
Ar   8.197427   20.99672   11.06414    
Ar   11.36559   21.76286   12.76080    
Ar   11.87301   24.51483   19.42029    
Ar   11.48618   20.59034   20.40379    
Ar   14.16949   19.62971   23.03030    
Ar   8.303264   25.03404   28.04673    
Ar   11.89592   21.11370   33.09370    
Ar   10.20050   24.52346   35.42376    
Ar   11.68854   27.10721   1.857487    
Ar   10.21462   25.90939   5.452004    
Ar   6.853138   23.97786   9.794391    
Ar   9.235978   26.28078   11.67677    
Ar   12.28103   28.31320   15.72441    
Ar   9.168483   25.64304   21.46448    
Ar   11.08900   24.24366   26.08428    
Ar   11.56136   27.30542   27.94865    
Ar   9.228785   26.80275   32.23237    
Ar   10.25023   29.01419   35.21722    
Ar   12.02652   29.73046   4.964088    
Ar   10.55500   29.04056   9.142281    
Ar   13.17761   29.55253   12.10583    
Ar   13.47410   25.91945   12.61716    
Ar   9.997828   31.47213   16.68413    
Ar   10.82950   28.29116   19.14956    
Ar   8.687903   26.92548   25.13631    
Ar   10.60900   30.74993   27.35481    
Ar   9.652558   30.42918   31.13806    
Ar   11.32171   34.53422   2.052214    
Ar   12.49470   35.18087   5.458915    
Ar   8.891963   36.14093   9.702934    
Ar   11.07118   35.31593   12.18831    
Ar   10.04544   31.65753   12.94456    
Ar   12.78522   34.80697   18.05541    
Ar   9.155907   32.76521   19.99866    
Ar   10.61412   30.33868   22.39336    
Ar   8.781926   33.66765   25.41657    
Ar   10.13723   34.24534   34.46470    
Ar   14.38872   33.59908   36.19110    
Ar   16.97773 0.02928574   6.191700    
Ar   16.05174   1.541868   9.582097    
Ar   14.60251   35.67685   13.27174    
Ar   13.87768   1.545256   15.60072    
Ar   15.45539   1.574664   19.17966    
Ar   12.33464   1.534918   21.93234    
Ar   15.71909   35.87427   26.02795    
Ar   15.15827   35.26915   29.62432    
Ar   12.83807   35.73613   32.81118    
Ar   15.90579  0.5104291   35.53166    
Ar   14.97492   4.089323   2.655977    
Ar   14.37249   2.345737   5.708190    
Ar   13.58161   3.937397   8.875463    
Ar   12.86011   2.143029   11.97759    
Ar   15.78858   5.990940   17.21491    
Ar   10.78970   4.807719   21.78803    
Ar   15.37497   2.803877   23.70936    
Ar   15.57244   2.713674   28.15789    
Ar   15.35376   1.594143   31.92745    
Ar   15.02807   4.420526   35.32482    
Ar   13.91051   7.565495  0.3518846    
Ar   14.21653   7.227922   5.370150    
Ar   12.03259   8.743622   13.72156    
Ar   15.07359   7.092648   12.73795    
Ar   15.60329   10.15342   15.34313    
Ar   13.64604   8.543438   22.36595    
Ar   14.10034   9.551786   26.77020    
Ar   12.76427   5.816269   28.53794    
Ar   15.61744   5.601421   31.92949    
Ar   16.64773   10.61621   34.82662    
Ar   14.57944   13.64743   1.045540    
Ar   17.12515   10.06546   6.490582    
Ar   14.90197   11.11378   11.19063    
Ar   12.67158   12.00908   14.32474    
Ar   14.68448   13.04885   17.00638    
Ar   14.38508   9.083368   18.92752    
Ar   14.48676   12.30897   24.36740    
Ar   13.92386   8.866256   31.39369    
Ar   17.91790   8.920452   31.18886    
Ar   16.70884   13.96670   32.27019    
Ar   14.25124   15.76401   34.32889    
Ar   13.64704   15.70915   7.066532    
Ar   13.03885   14.48594   10.90386    
Ar   14.94180   15.48421   13.63860    
Ar   15.75405   16.08263   17.80085    
Ar   17.15866   12.33968   22.23328    
Ar   15.94404   15.87414   23.96081    
Ar   15.08797   11.91185   29.85379    
Ar   13.34399   12.34134   33.97175    
Ar   10.95490   17.73270   34.20145    
Ar   14.35719   20.08076   2.212972    
Ar   14.26631   19.39099   6.636225    
Ar   14.83407   17.64703   10.45220    
Ar   13.76126   21.72566   17.60448    
Ar   16.46243   21.24981   20.20072    
Ar   16.24743   17.59146   20.78491    
Ar   15.25016   17.80511   26.96076    
Ar   11.21686   17.26769   26.97228    
Ar   13.19633   15.28378   30.42524    
Ar   15.26281   19.45589   35.09660    
Ar   15.44197   22.77582   5.006472    
Ar   15.13062   23.38920   9.336217    
Ar   12.59123   20.60877   9.514893    
Ar   15.84539   19.14519   14.46568    
Ar   17.59277   22.39339   15.59724    
Ar   13.73336   23.09268   23.26503    
Ar   17.28979   23.08912   27.65080    
Ar   13.62386   19.28816   29.63251    
Ar   15.64428   21.67661   31.26003    
Ar   14.72262   23.29379  0.8201052    
Ar   15.57119   29.55458   4.909444    
Ar   11.19643   24.35032   9.275342    
Ar   14.84255   22.53817   13.41805    
Ar   14.40286   24.98770   16.23127    
Ar   15.03556   25.59220   20.47534    
Ar   12.04162   27.52662   24.44634    
Ar   14.19263   25.51424   26.44915    
Ar   13.31107   24.67915   30.56083    
Ar   13.30299   25.74685   34.42447    
Ar   15.96324   26.43689  0.9144019    
Ar   14.52533   30.06211  0.9510285    
Ar   14.07060   32.04025   7.207943    
Ar   14.67909   28.96817   8.671363    
Ar   16.09756   29.65040   15.74322    
Ar   16.79395   28.72940   19.50924    
Ar   14.20187   29.03987   22.18586    
Ar   13.33526   30.42482   25.48233    
Ar   15.09050   28.05280   28.87931    
Ar   13.40374   28.38047   31.82638    
Ar   13.32967   31.04580   34.17989    
Ar   14.12217   32.58989   3.754969    
Ar   11.07192   33.68049   8.341440    
Ar   13.88323   32.99504   10.96855    
Ar   13.85359   32.49395   14.94619    
Ar   13.66426   31.07255   18.45455    
Ar   14.18511   32.72489   22.46904    
Ar   16.30872   32.53227   25.31065    
Ar   13.28794   31.72724   30.01248    
Ar   16.09717   33.66497   32.90465    
Ar   18.69167   35.03842   35.19190    
Ar   15.17457   36.07874   2.845839    
Ar   19.79928   33.94896   5.053767    
Ar   19.57586   1.824198   8.530333    
Ar   20.76798   1.334714   12.89631    
Ar   17.80774   1.431184   15.28145    
Ar   19.78492   34.96319   19.46721    
Ar   19.24256   2.431784   23.43672    
Ar   19.00095  0.8906676   27.85303    
Ar   18.36705   36.24252   31.77451    
Ar   18.35442   4.390306   1.566334    
Ar   19.13850   3.461946   5.174854    
Ar   17.14010   4.473781   7.934316    
Ar   18.85326   3.776767   11.08131    
Ar   16.07315   3.360403   12.87734    
Ar   19.05032   2.164750   19.14424    
Ar   15.39741   5.766950   21.08783    
Ar   18.48709   4.333803   26.07628    
Ar   18.38389   3.302447   30.53671    
Ar   18.86947   2.972787   33.77607    
Ar   18.37324   7.579344   35.21056    
Ar   17.40682   8.063603   3.062399    
Ar   19.69163   7.590244   7.235483    
Ar   15.72734   7.390451   9.372316    
Ar   18.25174   7.519411   14.57726    
Ar   20.49935   7.507030   18.12710    
Ar   17.81643   8.844745   20.41870    
Ar   16.78453   7.114803   24.54795    
Ar   16.41043   6.259177   28.44170    
Ar   20.60367   6.596509   31.94186    
Ar   18.84497   10.81647   1.038587    
Ar   13.85526   10.75544   4.137943    
Ar   19.34577   13.39942   6.731302    
Ar   18.48262   10.82214   9.942128    
Ar   17.70469   13.11436   14.79711    
Ar   17.85597   11.78945   18.22605    
Ar   20.82162   12.23609   21.20334    
Ar   19.21460   10.02127   24.04841    
Ar   17.50638   10.29918   27.62628    
Ar   19.09386   12.40742   29.99909    
Ar   18.08352   14.59155   1.358674    
Ar   15.93588   13.64521   4.946747    
Ar   16.21795   14.32644   9.198258    
Ar   18.41783   15.80739   11.51167    
Ar   18.43473   16.54231   14.86037    
Ar   19.25154   15.40221   19.15274    
Ar   19.61830   15.79931   22.63101    
Ar   18.97711   13.33844   26.04860    
Ar   17.04875   14.92292   28.55442    
Ar   20.26654   13.48098   33.15552    
Ar   17.55962   18.19797  0.9313740    
Ar   15.16577   17.14682   3.728097    
Ar   17.48709   20.15148   4.201099    
Ar   17.17538   16.81053   6.898094    
Ar   17.72946   19.70144   11.74774    
Ar   17.95345   18.68504   17.73505    
Ar   20.26928   18.89552   20.68376    
Ar   19.90328   17.72339   25.87553    
Ar   18.35729   19.48152   28.98296    
Ar   20.11436   16.73801   31.57565    
Ar   19.19927   21.17516   35.16772    
Ar   18.07886   22.62298   1.845112    
Ar   19.35161   23.16523   6.986408    
Ar   17.34052   20.37348   8.056828    
Ar   19.21825   23.41491   12.18102    
Ar   18.75417   24.02416   18.97002    
Ar   17.72593   19.80809   23.86184    
Ar   20.07365   22.78001   25.49032    
Ar   19.27138   23.30287   31.94700    
Ar   16.95535   18.22797   32.08737    
Ar   16.54949   24.22582   34.24316    
Ar   17.40790   25.63618   3.958780    
Ar   13.74465   25.96140   5.873599    
Ar   16.87606   26.16283   11.54484    
Ar   17.54845   26.18373   15.30410    
Ar   19.70116   28.34790   17.68153    
Ar   17.71382   23.85110   22.94487    
Ar   16.55817   27.20796   24.39624    
Ar   18.43733   26.39917   28.18170    
Ar   16.66188   25.55825   30.90675    
Ar   16.42145   27.96519   34.01888    
Ar   18.16181   28.74343   2.294585    
Ar   18.04978   30.99955   6.465820    
Ar   18.24100   28.96711   9.961446    
Ar   19.72066   29.67627   14.56910    
Ar   21.64021   31.23343   16.99564    
Ar   18.72697   29.89148   23.50466    
Ar   17.01169   31.79790   21.07926    
Ar   18.82208   30.31024   26.95153    
Ar   16.47798   30.51521   31.07170    
Ar   17.58563   30.72578   35.52729    
Ar   17.61499   33.11112   2.123224    
Ar   18.07030   35.49133   12.12259    
Ar   18.44417   31.61314   12.04151    
Ar   16.26963   34.93365   17.00259    
Ar   18.25811   31.86226   17.68875    
Ar   16.53569   35.17940   21.57961    
Ar   19.26574   34.05685   24.08899    
Ar   18.38046   33.79002   28.37869    
Ar   19.68406   32.99617   32.13973    
Ar   21.43311   1.695383  0.5570173    
Ar   18.63533  0.1303629   2.516872    
Ar   22.35932   36.14057   7.565527    
Ar   22.24434   34.30914   12.09187    
Ar   21.95819  0.4444325   17.51642    
Ar   23.58330   33.57652   19.24491    
Ar   24.98285  0.6896813   23.05610    
Ar   23.00239   34.71275   26.05634    
Ar   22.72605  0.7634116   29.43982    
Ar   22.07020  0.2567577   33.18249    
Ar   21.58650   6.605897   35.02268    
Ar   22.30456  0.8383318   3.698395    
Ar   21.49056   4.971326   8.896476    
Ar   22.80033   4.490124   12.74505    
Ar   20.17416   4.480889   15.23402    
Ar   22.44293   4.278971   18.05554    
Ar   22.88786   2.402957   20.99788    
Ar   21.96097   2.083904   25.52997    
Ar   21.58899   4.314652   29.20726    
Ar   23.01562   3.649986   33.86377    
Ar   20.23543   10.19340   34.13477    
Ar   21.63822   5.628310   3.328397    
Ar   23.08253   7.208680   6.490873    
Ar   19.17630   7.288469   11.14499    
Ar   23.53448   7.033307   15.12174    
Ar   23.16644   10.64680   19.17712    
Ar   19.47991   5.437716   21.64488    
Ar   22.00484   6.101894   25.69309    
Ar   19.49569   7.352099   28.38959    
Ar   24.02889   7.994804   32.49044    
Ar   22.31330   9.848938   1.536225    
Ar   21.24830   9.813706   5.035313    
Ar   22.35665   10.29737   8.484872    
Ar   21.23550   9.660448   12.72644    
Ar   20.58190   10.34113   16.05093    
Ar   25.29898   13.12618   21.13636    
Ar   21.26945   8.732148   21.57626    
Ar   21.67934   10.24731   27.12271    
Ar   21.80486   10.28530   30.68597    
Ar   24.20721   12.47435   33.38713    
Ar   21.68091   13.90636 0.08401784    
Ar   22.87515   13.43972   3.402717    
Ar   19.41762   16.27896   4.520554    
Ar   21.55465   13.83507   10.56135    
Ar   21.25102   14.18173   15.07707    
Ar   22.68117   14.24687   19.00427    
Ar   22.29066   13.23371   24.97951    
Ar   20.96306   15.25455   28.35141    
Ar   23.92393   12.92902   29.52736    
Ar   23.44488   15.98773   33.38736    
Ar   20.50855   17.83181   35.43833    
Ar   21.03961   20.09098   2.409529    
Ar   19.92151   17.87813   9.174667    
Ar   21.59383   17.93756   12.54975    
Ar   21.50056   21.02889   14.35712    
Ar   24.48128   20.05444   16.88060    
Ar   22.62580   19.44749   24.58752    
Ar   21.74905   19.07855   28.75629    
Ar   24.64291   17.00744   30.22225    
Ar   26.22707   18.34354   33.65684    
Ar   21.84942   23.24323   1.425949    
Ar   20.92196   19.66113   6.121475    
Ar   23.54989   22.41738   6.891486    
Ar   21.93251   21.22371   9.953227    
Ar   22.94701   23.85314   12.47036    
Ar   21.62657   22.00662   17.83359    
Ar   24.26921   23.86555   20.08017    
Ar   21.37460   23.06500   21.73579    
Ar   20.87017   22.69355   29.01064    
Ar   20.78519   19.98065   32.07571    
Ar   19.94737   25.55483  0.2484310    
Ar   21.66407   26.36736   4.421243    
Ar   18.61849   27.12261   6.917463    
Ar   21.29330   25.22573   9.038359    
Ar   21.73542   25.26650   15.84770    
Ar   24.09187   27.10302   18.12419    
Ar   20.26187   26.89251   20.94503    
Ar   20.03199   26.15324   24.54808    
Ar   21.58901   25.72987   30.62003    
Ar   22.73617   24.35152   33.74868    
Ar   21.17022   29.76971  0.3052282    
Ar   20.78628   29.89046   4.049013    
Ar   22.16343   28.31440   7.613827    
Ar   20.60312   26.42933   12.45532    
Ar   24.08951   30.27482   14.31221    
Ar   20.61995   31.19890   20.60465    
Ar   22.22350   28.70111   23.40978    
Ar   21.94800   28.31135   27.25561    
Ar   19.56238   29.44027   29.94679    
Ar   20.24367   27.64892   33.09139    
Ar   22.11785   34.53566  0.5231828    
Ar   22.94926   33.19269   4.024335    
Ar   22.77017   32.36509   7.447677    
Ar   19.58492   33.17781   9.198837    
Ar   21.88327   30.68652   10.77382    
Ar   20.17772   34.89204   15.22208    
Ar   22.55026   33.99076   22.34432    
Ar   21.53127   31.69289   24.88915    
Ar   22.39728   33.53832   29.68970    
Ar   23.95827   33.03914   33.97145    
Ar   26.38165   35.85800   2.005105    
Ar   25.35637 0.05104037   5.628217    
Ar   23.73882   2.190609   9.895063    
Ar   27.03106   34.15098   12.50958    
Ar   24.16770   33.63040   15.96985    
Ar   25.34623  0.5545757   18.70086    
Ar   28.74577   1.195907   21.68817    
Ar   26.59817   35.74006   26.15044    
Ar   25.11613   35.54260   31.36667    
Ar   25.07856   1.528257   36.02376    
Ar   24.18250   4.657382  0.9398904    
Ar   25.03079   4.080502   4.497477    
Ar   26.71102   4.353816   8.014330    
Ar   26.22061   3.570664   12.06612    
Ar   24.34836  0.2223703   13.22470    
Ar   27.97610   1.018583   15.91369    
Ar   26.29496   3.799696   22.06416    
Ar   25.25119   3.809259   26.88628    
Ar   26.71564   1.654837   28.77942    
Ar   25.15564   4.266681   30.70742    
Ar   24.61125   7.662156   35.89055    
Ar   24.58368   8.284821   3.495690    
Ar   25.70419   8.004972   8.962764    
Ar   22.87261   7.470830   10.86633    
Ar   25.25319   3.502652   15.61266    
Ar   25.39324   7.698522   18.41655    
Ar   23.29218   6.004452   21.58901    
Ar   26.88351   6.824768   24.96656    
Ar   23.85606   7.131539   28.33730    
Ar   27.67013   8.837972   33.96951    
Ar   25.08557   12.94437  0.4685895    
Ar   28.91239   10.03747   4.267408    
Ar   25.50951   11.40725   4.521225    
Ar   24.38615   11.20425   10.97123    
Ar   24.42424   11.05308   14.59436    
Ar   27.86955   10.70508   20.18618    
Ar   24.63751   9.169833   22.71159    
Ar   26.73488   10.02470   27.90388    
Ar   26.36013   10.15733   31.24799    
Ar   28.00647   12.77256   34.41563    
Ar   24.11539   17.51752  0.6800294    
Ar   23.18805   16.94436   4.183288    
Ar   22.90661   15.23097   7.324664    
Ar   24.91452   14.87609   11.33635    
Ar   25.75037   12.79554   17.73989    
Ar   21.57355   18.18414   17.42257    
Ar   24.65206   16.40679   23.44921    
Ar   25.97437   12.93198   25.43175    
Ar   27.18205   13.97471   31.22357    