1000
Step = 0
Ar   0.000000   0.000000   0.000000    
Ar   0.000000   0.000000   3.640541    
Ar   0.000000   0.000000   7.281082    
Ar   0.000000   0.000000   10.92162    
Ar   0.000000   0.000000   14.56216    
Ar   0.000000   0.000000   18.20271    
Ar   0.000000   0.000000   21.84325    
Ar   0.000000   0.000000   25.48379    
Ar   0.000000   0.000000   29.12433    
Ar   0.000000   0.000000   32.76487    
Ar   0.000000   3.640541   0.000000    
Ar   0.000000   3.640541   3.640541    
Ar   0.000000   3.640541   7.281082    
Ar   0.000000   3.640541   10.92162    
Ar   0.000000   3.640541   14.56216    
Ar   0.000000   3.640541   18.20271    
Ar   0.000000   3.640541   21.84325    
Ar   0.000000   3.640541   25.48379    
Ar   0.000000   3.640541   29.12433    
Ar   0.000000   3.640541   32.76487    
Ar   0.000000   7.281082   0.000000    
Ar   0.000000   7.281082   3.640541    
Ar   0.000000   7.281082   7.281082    
Ar   0.000000   7.281082   10.92162    
Ar   0.000000   7.281082   14.56216    
Ar   0.000000   7.281082   18.20271    
Ar   0.000000   7.281082   21.84325    
Ar   0.000000   7.281082   25.48379    
Ar   0.000000   7.281082   29.12433    
Ar   0.000000   7.281082   32.76487    
Ar   0.000000   10.92162   0.000000    
Ar   0.000000   10.92162   3.640541    
Ar   0.000000   10.92162   7.281082    
Ar   0.000000   10.92162   10.92162    
Ar   0.000000   10.92162   14.56216    
Ar   0.000000   10.92162   18.20271    
Ar   0.000000   10.92162   21.84325    
Ar   0.000000   10.92162   25.48379    
Ar   0.000000   10.92162   29.12433    
Ar   0.000000   10.92162   32.76487    
Ar   0.000000   14.56216   0.000000    
Ar   0.000000   14.56216   3.640541    
Ar   0.000000   14.56216   7.281082    
Ar   0.000000   14.56216   10.92162    
Ar   0.000000   14.56216   14.56216    
Ar   0.000000   14.56216   18.20271    
Ar   0.000000   14.56216   21.84325    
Ar   0.000000   14.56216   25.48379    
Ar   0.000000   14.56216   29.12433    
Ar   0.000000   14.56216   32.76487    
Ar   0.000000   18.20271   0.000000    
Ar   0.000000   18.20271   3.640541    
Ar   0.000000   18.20271   7.281082    
Ar   0.000000   18.20271   10.92162    
Ar   0.000000   18.20271   14.56216    
Ar   0.000000   18.20271   18.20271    
Ar   0.000000   18.20271   21.84325    
Ar   0.000000   18.20271   25.48379    
Ar   0.000000   18.20271   29.12433    
Ar   0.000000   18.20271   32.76487    
Ar   0.000000   21.84325   0.000000    
Ar   0.000000   21.84325   3.640541    
Ar   0.000000   21.84325   7.281082    
Ar   0.000000   21.84325   10.92162    
Ar   0.000000   21.84325   14.56216    
Ar   0.000000   21.84325   18.20271    
Ar   0.000000   21.84325   21.84325    
Ar   0.000000   21.84325   25.48379    
Ar   0.000000   21.84325   29.12433    
Ar   0.000000   21.84325   32.76487    
Ar   0.000000   25.48379   0.000000    
Ar   0.000000   25.48379   3.640541    
Ar   0.000000   25.48379   7.281082    
Ar   0.000000   25.48379   10.92162    
Ar   0.000000   25.48379   14.56216    
Ar   0.000000   25.48379   18.20271    
Ar   0.000000   25.48379   21.84325    
Ar   0.000000   25.48379   25.48379    
Ar   0.000000   25.48379   29.12433    
Ar   0.000000   25.48379   32.76487    
Ar   0.000000   29.12433   0.000000    
Ar   0.000000   29.12433   3.640541    
Ar   0.000000   29.12433   7.281082    
Ar   0.000000   29.12433   10.92162    
Ar   0.000000   29.12433   14.56216    
Ar   0.000000   29.12433   18.20271    
Ar   0.000000   29.12433   21.84325    
Ar   0.000000   29.12433   25.48379    
Ar   0.000000   29.12433   29.12433    
Ar   0.000000   29.12433   32.76487    
Ar   0.000000   32.76487   0.000000    
Ar   0.000000   32.76487   3.640541    
Ar   0.000000   32.76487   7.281082    
Ar   0.000000   32.76487   10.92162    
Ar   0.000000   32.76487   14.56216    
Ar   0.000000   32.76487   18.20271    
Ar   0.000000   32.76487   21.84325    
Ar   0.000000   32.76487   25.48379    
Ar   0.000000   32.76487   29.12433    
Ar   0.000000   32.76487   32.76487    
Ar   3.640541   0.000000   0.000000    
Ar   3.640541   0.000000   3.640541    
Ar   3.640541   0.000000   7.281082    
Ar   3.640541   0.000000   10.92162    
Ar   3.640541   0.000000   14.56216    
Ar   3.640541   0.000000   18.20271    
Ar   3.640541   0.000000   21.84325    
Ar   3.640541   0.000000   25.48379    
Ar   3.640541   0.000000   29.12433    
Ar   3.640541   0.000000   32.76487    
Ar   3.640541   3.640541   0.000000    
Ar   3.640541   3.640541   3.640541    
Ar   3.640541   3.640541   7.281082    
Ar   3.640541   3.640541   10.92162    
Ar   3.640541   3.640541   14.56216    
Ar   3.640541   3.640541   18.20271    
Ar   3.640541   3.640541   21.84325    
Ar   3.640541   3.640541   25.48379    
Ar   3.640541   3.640541   29.12433    
Ar   3.640541   3.640541   32.76487    
Ar   3.640541   7.281082   0.000000    
Ar   3.640541   7.281082   3.640541    
Ar   3.640541   7.281082   7.281082    
Ar   3.640541   7.281082   10.92162    
Ar   3.640541   7.281082   14.56216    
Ar   3.640541   7.281082   18.20271    
Ar   3.640541   7.281082   21.84325    
Ar   3.640541   7.281082   25.48379    
Ar   3.640541   7.281082   29.12433    
Ar   3.640541   7.281082   32.76487    
Ar   3.640541   10.92162   0.000000    
Ar   3.640541   10.92162   3.640541    
Ar   3.640541   10.92162   7.281082    
Ar   3.640541   10.92162   10.92162    
Ar   3.640541   10.92162   14.56216    
Ar   3.640541   10.92162   18.20271    
Ar   3.640541   10.92162   21.84325    
Ar   3.640541   10.92162   25.48379    
Ar   3.640541   10.92162   29.12433    
Ar   3.640541   10.92162   32.76487    
Ar   3.640541   14.56216   0.000000    
Ar   3.640541   14.56216   3.640541    
Ar   3.640541   14.56216   7.281082    
Ar   3.640541   14.56216   10.92162    
Ar   3.640541   14.56216   14.56216    
Ar   3.640541   14.56216   18.20271    
Ar   3.640541   14.56216   21.84325    
Ar   3.640541   14.56216   25.48379    
Ar   3.640541   14.56216   29.12433    
Ar   3.640541   14.56216   32.76487    
Ar   3.640541   18.20271   0.000000    
Ar   3.640541   18.20271   3.640541    
Ar   3.640541   18.20271   7.281082    
Ar   3.640541   18.20271   10.92162    
Ar   3.640541   18.20271   14.56216    
Ar   3.640541   18.20271   18.20271    
Ar   3.640541   18.20271   21.84325    
Ar   3.640541   18.20271   25.48379    
Ar   3.640541   18.20271   29.12433    
Ar   3.640541   18.20271   32.76487    
Ar   3.640541   21.84325   0.000000    
Ar   3.640541   21.84325   3.640541    
Ar   3.640541   21.84325   7.281082    
Ar   3.640541   21.84325   10.92162    
Ar   3.640541   21.84325   14.56216    
Ar   3.640541   21.84325   18.20271    
Ar   3.640541   21.84325   21.84325    
Ar   3.640541   21.84325   25.48379    
Ar   3.640541   21.84325   29.12433    
Ar   3.640541   21.84325   32.76487    
Ar   3.640541   25.48379   0.000000    
Ar   3.640541   25.48379   3.640541    
Ar   3.640541   25.48379   7.281082    
Ar   3.640541   25.48379   10.92162    
Ar   3.640541   25.48379   14.56216    
Ar   3.640541   25.48379   18.20271    
Ar   3.640541   25.48379   21.84325    
Ar   3.640541   25.48379   25.48379    
Ar   3.640541   25.48379   29.12433    
Ar   3.640541   25.48379   32.76487    
Ar   3.640541   29.12433   0.000000    
Ar   3.640541   29.12433   3.640541    
Ar   3.640541   29.12433   7.281082    
Ar   3.640541   29.12433   10.92162    
Ar   3.640541   29.12433   14.56216    
Ar   3.640541   29.12433   18.20271    
Ar   3.640541   29.12433   21.84325    
Ar   3.640541   29.12433   25.48379    
Ar   3.640541   29.12433   29.12433    
Ar   3.640541   29.12433   32.76487    
Ar   3.640541   32.76487   0.000000    
Ar   3.640541   32.76487   3.640541    
Ar   3.640541   32.76487   7.281082    
Ar   3.640541   32.76487   10.92162    
Ar   3.640541   32.76487   14.56216    
Ar   3.640541   32.76487   18.20271    
Ar   3.640541   32.76487   21.84325    
Ar   3.640541   32.76487   25.48379    
Ar   3.640541   32.76487   29.12433    
Ar   3.640541   32.76487   32.76487    
Ar   7.281082   0.000000   0.000000    
Ar   7.281082   0.000000   3.640541    
Ar   7.281082   0.000000   7.281082    
Ar   7.281082   0.000000   10.92162    
Ar   7.281082   0.000000   14.56216    
Ar   7.281082   0.000000   18.20271    
Ar   7.281082   0.000000   21.84325    
Ar   7.281082   0.000000   25.48379    
Ar   7.281082   0.000000   29.12433    
Ar   7.281082   0.000000   32.76487    
Ar   7.281082   3.640541   0.000000    
Ar   7.281082   3.640541   3.640541    
Ar   7.281082   3.640541   7.281082    
Ar   7.281082   3.640541   10.92162    
Ar   7.281082   3.640541   14.56216    
Ar   7.281082   3.640541   18.20271    
Ar   7.281082   3.640541   21.84325    
Ar   7.281082   3.640541   25.48379    
Ar   7.281082   3.640541   29.12433    
Ar   7.281082   3.640541   32.76487    
Ar   7.281082   7.281082   0.000000    
Ar   7.281082   7.281082   3.640541    
Ar   7.281082   7.281082   7.281082    
Ar   7.281082   7.281082   10.92162    
Ar   7.281082   7.281082   14.56216    
Ar   7.281082   7.281082   18.20271    
Ar   7.281082   7.281082   21.84325    
Ar   7.281082   7.281082   25.48379    
Ar   7.281082   7.281082   29.12433    
Ar   7.281082   7.281082   32.76487    
Ar   7.281082   10.92162   0.000000    
Ar   7.281082   10.92162   3.640541    
Ar   7.281082   10.92162   7.281082    
Ar   7.281082   10.92162   10.92162    
Ar   7.281082   10.92162   14.56216    
Ar   7.281082   10.92162   18.20271    
Ar   7.281082   10.92162   21.84325    
Ar   7.281082   10.92162   25.48379    
Ar   7.281082   10.92162   29.12433    
Ar   7.281082   10.92162   32.76487    
Ar   7.281082   14.56216   0.000000    
Ar   7.281082   14.56216   3.640541    
Ar   7.281082   14.56216   7.281082    
Ar   7.281082   14.56216   10.92162    
Ar   7.281082   14.56216   14.56216    
Ar   7.281082   14.56216   18.20271    
Ar   7.281082   14.56216   21.84325    
Ar   7.281082   14.56216   25.48379    
Ar   7.281082   14.56216   29.12433    
Ar   7.281082   14.56216   32.76487    
Ar   7.281082   18.20271   0.000000    
Ar   7.281082   18.20271   3.640541    
Ar   7.281082   18.20271   7.281082    
Ar   7.281082   18.20271   10.92162    
Ar   7.281082   18.20271   14.56216    
Ar   7.281082   18.20271   18.20271    
Ar   7.281082   18.20271   21.84325    
Ar   7.281082   18.20271   25.48379    
Ar   7.281082   18.20271   29.12433    
Ar   7.281082   18.20271   32.76487    
Ar   7.281082   21.84325   0.000000    
Ar   7.281082   21.84325   3.640541    
Ar   7.281082   21.84325   7.281082    
Ar   7.281082   21.84325   10.92162    
Ar   7.281082   21.84325   14.56216    
Ar   7.281082   21.84325   18.20271    
Ar   7.281082   21.84325   21.84325    
Ar   7.281082   21.84325   25.48379    
Ar   7.281082   21.84325   29.12433    
Ar   7.281082   21.84325   32.76487    
Ar   7.281082   25.48379   0.000000    
Ar   7.281082   25.48379   3.640541    
Ar   7.281082   25.48379   7.281082    
Ar   7.281082   25.48379   10.92162    
Ar   7.281082   25.48379   14.56216    
Ar   7.281082   25.48379   18.20271    
Ar   7.281082   25.48379   21.84325    
Ar   7.281082   25.48379   25.48379    
Ar   7.281082   25.48379   29.12433    
Ar   7.281082   25.48379   32.76487    
Ar   7.281082   29.12433   0.000000    
Ar   7.281082   29.12433   3.640541    
Ar   7.281082   29.12433   7.281082    
Ar   7.281082   29.12433   10.92162    
Ar   7.281082   29.12433   14.56216    
Ar   7.281082   29.12433   18.20271    
Ar   7.281082   29.12433   21.84325    
Ar   7.281082   29.12433   25.48379    
Ar   7.281082   29.12433   29.12433    
Ar   7.281082   29.12433   32.76487    
Ar   7.281082   32.76487   0.000000    
Ar   7.281082   32.76487   3.640541    
Ar   7.281082   32.76487   7.281082    
Ar   7.281082   32.76487   10.92162    
Ar   7.281082   32.76487   14.56216    
Ar   7.281082   32.76487   18.20271    
Ar   7.281082   32.76487   21.84325    
Ar   7.281082   32.76487   25.48379    
Ar   7.281082   32.76487   29.12433    
Ar   7.281082   32.76487   32.76487    
Ar   10.92162   0.000000   0.000000    
Ar   10.92162   0.000000   3.640541    
Ar   10.92162   0.000000   7.281082    
Ar   10.92162   0.000000   10.92162    
Ar   10.92162   0.000000   14.56216    
Ar   10.92162   0.000000   18.20271    
Ar   10.92162   0.000000   21.84325    
Ar   10.92162   0.000000   25.48379    
Ar   10.92162   0.000000   29.12433    
Ar   10.92162   0.000000   32.76487    
Ar   10.92162   3.640541   0.000000    
Ar   10.92162   3.640541   3.640541    
Ar   10.92162   3.640541   7.281082    
Ar   10.92162   3.640541   10.92162    
Ar   10.92162   3.640541   14.56216    
Ar   10.92162   3.640541   18.20271    
Ar   10.92162   3.640541   21.84325    
Ar   10.92162   3.640541   25.48379    
Ar   10.92162   3.640541   29.12433    
Ar   10.92162   3.640541   32.76487    
Ar   10.92162   7.281082   0.000000    
Ar   10.92162   7.281082   3.640541    
Ar   10.92162   7.281082   7.281082    
Ar   10.92162   7.281082   10.92162    
Ar   10.92162   7.281082   14.56216    
Ar   10.92162   7.281082   18.20271    
Ar   10.92162   7.281082   21.84325    
Ar   10.92162   7.281082   25.48379    
Ar   10.92162   7.281082   29.12433    
Ar   10.92162   7.281082   32.76487    
Ar   10.92162   10.92162   0.000000    
Ar   10.92162   10.92162   3.640541    
Ar   10.92162   10.92162   7.281082    
Ar   10.92162   10.92162   10.92162    
Ar   10.92162   10.92162   14.56216    
Ar   10.92162   10.92162   18.20271    
Ar   10.92162   10.92162   21.84325    
Ar   10.92162   10.92162   25.48379    
Ar   10.92162   10.92162   29.12433    
Ar   10.92162   10.92162   32.76487    
Ar   10.92162   14.56216   0.000000    
Ar   10.92162   14.56216   3.640541    
Ar   10.92162   14.56216   7.281082    
Ar   10.92162   14.56216   10.92162    
Ar   10.92162   14.56216   14.56216    
Ar   10.92162   14.56216   18.20271    
Ar   10.92162   14.56216   21.84325    
Ar   10.92162   14.56216   25.48379    
Ar   10.92162   14.56216   29.12433    
Ar   10.92162   14.56216   32.76487    
Ar   10.92162   18.20271   0.000000    
Ar   10.92162   18.20271   3.640541    
Ar   10.92162   18.20271   7.281082    
Ar   10.92162   18.20271   10.92162    
Ar   10.92162   18.20271   14.56216    
Ar   10.92162   18.20271   18.20271    
Ar   10.92162   18.20271   21.84325    
Ar   10.92162   18.20271   25.48379    
Ar   10.92162   18.20271   29.12433    
Ar   10.92162   18.20271   32.76487    
Ar   10.92162   21.84325   0.000000    
Ar   10.92162   21.84325   3.640541    
Ar   10.92162   21.84325   7.281082    
Ar   10.92162   21.84325   10.92162    
Ar   10.92162   21.84325   14.56216    
Ar   10.92162   21.84325   18.20271    
Ar   10.92162   21.84325   21.84325    
Ar   10.92162   21.84325   25.48379    
Ar   10.92162   21.84325   29.12433    
Ar   10.92162   21.84325   32.76487    
Ar   10.92162   25.48379   0.000000    
Ar   10.92162   25.48379   3.640541    
Ar   10.92162   25.48379   7.281082    
Ar   10.92162   25.48379   10.92162    
Ar   10.92162   25.48379   14.56216    
Ar   10.92162   25.48379   18.20271    
Ar   10.92162   25.48379   21.84325    
Ar   10.92162   25.48379   25.48379    
Ar   10.92162   25.48379   29.12433    
Ar   10.92162   25.48379   32.76487    
Ar   10.92162   29.12433   0.000000    
Ar   10.92162   29.12433   3.640541    
Ar   10.92162   29.12433   7.281082    
Ar   10.92162   29.12433   10.92162    
Ar   10.92162   29.12433   14.56216    
Ar   10.92162   29.12433   18.20271    
Ar   10.92162   29.12433   21.84325    
Ar   10.92162   29.12433   25.48379    
Ar   10.92162   29.12433   29.12433    
Ar   10.92162   29.12433   32.76487    
Ar   10.92162   32.76487   0.000000    
Ar   10.92162   32.76487   3.640541    
Ar   10.92162   32.76487   7.281082    
Ar   10.92162   32.76487   10.92162    
Ar   10.92162   32.76487   14.56216    
Ar   10.92162   32.76487   18.20271    
Ar   10.92162   32.76487   21.84325    
Ar   10.92162   32.76487   25.48379    
Ar   10.92162   32.76487   29.12433    
Ar   10.92162   32.76487   32.76487    
Ar   14.56216   0.000000   0.000000    
Ar   14.56216   0.000000   3.640541    
Ar   14.56216   0.000000   7.281082    
Ar   14.56216   0.000000   10.92162    
Ar   14.56216   0.000000   14.56216    
Ar   14.56216   0.000000   18.20271    
Ar   14.56216   0.000000   21.84325    
Ar   14.56216   0.000000   25.48379    
Ar   14.56216   0.000000   29.12433    
Ar   14.56216   0.000000   32.76487    
Ar   14.56216   3.640541   0.000000    
Ar   14.56216   3.640541   3.640541    
Ar   14.56216   3.640541   7.281082    
Ar   14.56216   3.640541   10.92162    
Ar   14.56216   3.640541   14.56216    
Ar   14.56216   3.640541   18.20271    
Ar   14.56216   3.640541   21.84325    
Ar   14.56216   3.640541   25.48379    
Ar   14.56216   3.640541   29.12433    
Ar   14.56216   3.640541   32.76487    
Ar   14.56216   7.281082   0.000000    
Ar   14.56216   7.281082   3.640541    
Ar   14.56216   7.281082   7.281082    
Ar   14.56216   7.281082   10.92162    
Ar   14.56216   7.281082   14.56216    
Ar   14.56216   7.281082   18.20271    
Ar   14.56216   7.281082   21.84325    
Ar   14.56216   7.281082   25.48379    
Ar   14.56216   7.281082   29.12433    
Ar   14.56216   7.281082   32.76487    
Ar   14.56216   10.92162   0.000000    
Ar   14.56216   10.92162   3.640541    
Ar   14.56216   10.92162   7.281082    
Ar   14.56216   10.92162   10.92162    
Ar   14.56216   10.92162   14.56216    
Ar   14.56216   10.92162   18.20271    
Ar   14.56216   10.92162   21.84325    
Ar   14.56216   10.92162   25.48379    
Ar   14.56216   10.92162   29.12433    
Ar   14.56216   10.92162   32.76487    
Ar   14.56216   14.56216   0.000000    
Ar   14.56216   14.56216   3.640541    
Ar   14.56216   14.56216   7.281082    
Ar   14.56216   14.56216   10.92162    
Ar   14.56216   14.56216   14.56216    
Ar   14.56216   14.56216   18.20271    
Ar   14.56216   14.56216   21.84325    
Ar   14.56216   14.56216   25.48379    
Ar   14.56216   14.56216   29.12433    
Ar   14.56216   14.56216   32.76487    
Ar   14.56216   18.20271   0.000000    
Ar   14.56216   18.20271   3.640541    
Ar   14.56216   18.20271   7.281082    
Ar   14.56216   18.20271   10.92162    
Ar   14.56216   18.20271   14.56216    
Ar   14.56216   18.20271   18.20271    
Ar   14.56216   18.20271   21.84325    
Ar   14.56216   18.20271   25.48379    
Ar   14.56216   18.20271   29.12433    
Ar   14.56216   18.20271   32.76487    
Ar   14.56216   21.84325   0.000000    
Ar   14.56216   21.84325   3.640541    
Ar   14.56216   21.84325   7.281082    
Ar   14.56216   21.84325   10.92162    
Ar   14.56216   21.84325   14.56216    
Ar   14.56216   21.84325   18.20271    
Ar   14.56216   21.84325   21.84325    
Ar   14.56216   21.84325   25.48379    
Ar   14.56216   21.84325   29.12433    
Ar   14.56216   21.84325   32.76487    
Ar   14.56216   25.48379   0.000000    
Ar   14.56216   25.48379   3.640541    
Ar   14.56216   25.48379   7.281082    
Ar   14.56216   25.48379   10.92162    
Ar   14.56216   25.48379   14.56216    
Ar   14.56216   25.48379   18.20271    
Ar   14.56216   25.48379   21.84325    
Ar   14.56216   25.48379   25.48379    
Ar   14.56216   25.48379   29.12433    
Ar   14.56216   25.48379   32.76487    
Ar   14.56216   29.12433   0.000000    
Ar   14.56216   29.12433   3.640541    
Ar   14.56216   29.12433   7.281082    
Ar   14.56216   29.12433   10.92162    
Ar   14.56216   29.12433   14.56216    
Ar   14.56216   29.12433   18.20271    
Ar   14.56216   29.12433   21.84325    
Ar   14.56216   29.12433   25.48379    
Ar   14.56216   29.12433   29.12433    
Ar   14.56216   29.12433   32.76487    
Ar   14.56216   32.76487   0.000000    
Ar   14.56216   32.76487   3.640541    
Ar   14.56216   32.76487   7.281082    
Ar   14.56216   32.76487   10.92162    
Ar   14.56216   32.76487   14.56216    
Ar   14.56216   32.76487   18.20271    
Ar   14.56216   32.76487   21.84325    
Ar   14.56216   32.76487   25.48379    
Ar   14.56216   32.76487   29.12433    
Ar   14.56216   32.76487   32.76487    
Ar   18.20271   0.000000   0.000000    
Ar   18.20271   0.000000   3.640541    
Ar   18.20271   0.000000   7.281082    
Ar   18.20271   0.000000   10.92162    
Ar   18.20271   0.000000   14.56216    
Ar   18.20271   0.000000   18.20271    
Ar   18.20271   0.000000   21.84325    
Ar   18.20271   0.000000   25.48379    
Ar   18.20271   0.000000   29.12433    
Ar   18.20271   0.000000   32.76487    
Ar   18.20271   3.640541   0.000000    
Ar   18.20271   3.640541   3.640541    
Ar   18.20271   3.640541   7.281082    
Ar   18.20271   3.640541   10.92162    
Ar   18.20271   3.640541   14.56216    
Ar   18.20271   3.640541   18.20271    
Ar   18.20271   3.640541   21.84325    
Ar   18.20271   3.640541   25.48379    
Ar   18.20271   3.640541   29.12433    
Ar   18.20271   3.640541   32.76487    
Ar   18.20271   7.281082   0.000000    
Ar   18.20271   7.281082   3.640541    
Ar   18.20271   7.281082   7.281082    
Ar   18.20271   7.281082   10.92162    
Ar   18.20271   7.281082   14.56216    
Ar   18.20271   7.281082   18.20271    
Ar   18.20271   7.281082   21.84325    
Ar   18.20271   7.281082   25.48379    
Ar   18.20271   7.281082   29.12433    
Ar   18.20271   7.281082   32.76487    
Ar   18.20271   10.92162   0.000000    
Ar   18.20271   10.92162   3.640541    
Ar   18.20271   10.92162   7.281082    
Ar   18.20271   10.92162   10.92162    
Ar   18.20271   10.92162   14.56216    
Ar   18.20271   10.92162   18.20271    
Ar   18.20271   10.92162   21.84325    
Ar   18.20271   10.92162   25.48379    
Ar   18.20271   10.92162   29.12433    
Ar   18.20271   10.92162   32.76487    
Ar   18.20271   14.56216   0.000000    
Ar   18.20271   14.56216   3.640541    
Ar   18.20271   14.56216   7.281082    
Ar   18.20271   14.56216   10.92162    
Ar   18.20271   14.56216   14.56216    
Ar   18.20271   14.56216   18.20271    
Ar   18.20271   14.56216   21.84325    
Ar   18.20271   14.56216   25.48379    
Ar   18.20271   14.56216   29.12433    
Ar   18.20271   14.56216   32.76487    
Ar   18.20271   18.20271   0.000000    
Ar   18.20271   18.20271   3.640541    
Ar   18.20271   18.20271   7.281082    
Ar   18.20271   18.20271   10.92162    
Ar   18.20271   18.20271   14.56216    
Ar   18.20271   18.20271   18.20271    
Ar   18.20271   18.20271   21.84325    
Ar   18.20271   18.20271   25.48379    
Ar   18.20271   18.20271   29.12433    
Ar   18.20271   18.20271   32.76487    
Ar   18.20271   21.84325   0.000000    
Ar   18.20271   21.84325   3.640541    
Ar   18.20271   21.84325   7.281082    
Ar   18.20271   21.84325   10.92162    
Ar   18.20271   21.84325   14.56216    
Ar   18.20271   21.84325   18.20271    
Ar   18.20271   21.84325   21.84325    
Ar   18.20271   21.84325   25.48379    
Ar   18.20271   21.84325   29.12433    
Ar   18.20271   21.84325   32.76487    
Ar   18.20271   25.48379   0.000000    
Ar   18.20271   25.48379   3.640541    
Ar   18.20271   25.48379   7.281082    
Ar   18.20271   25.48379   10.92162    
Ar   18.20271   25.48379   14.56216    
Ar   18.20271   25.48379   18.20271    
Ar   18.20271   25.48379   21.84325    
Ar   18.20271   25.48379   25.48379    
Ar   18.20271   25.48379   29.12433    
Ar   18.20271   25.48379   32.76487    
Ar   18.20271   29.12433   0.000000    
Ar   18.20271   29.12433   3.640541    
Ar   18.20271   29.12433   7.281082    
Ar   18.20271   29.12433   10.92162    
Ar   18.20271   29.12433   14.56216    
Ar   18.20271   29.12433   18.20271    
Ar   18.20271   29.12433   21.84325    
Ar   18.20271   29.12433   25.48379    
Ar   18.20271   29.12433   29.12433    
Ar   18.20271   29.12433   32.76487    
Ar   18.20271   32.76487   0.000000    
Ar   18.20271   32.76487   3.640541    
Ar   18.20271   32.76487   7.281082    
Ar   18.20271   32.76487   10.92162    
Ar   18.20271   32.76487   14.56216    
Ar   18.20271   32.76487   18.20271    
Ar   18.20271   32.76487   21.84325    
Ar   18.20271   32.76487   25.48379    
Ar   18.20271   32.76487   29.12433    
Ar   18.20271   32.76487   32.76487    
Ar   21.84325   0.000000   0.000000    
Ar   21.84325   0.000000   3.640541    
Ar   21.84325   0.000000   7.281082    
Ar   21.84325   0.000000   10.92162    
Ar   21.84325   0.000000   14.56216    
Ar   21.84325   0.000000   18.20271    
Ar   21.84325   0.000000   21.84325    
Ar   21.84325   0.000000   25.48379    
Ar   21.84325   0.000000   29.12433    
Ar   21.84325   0.000000   32.76487    
Ar   21.84325   3.640541   0.000000    
Ar   21.84325   3.640541   3.640541    
Ar   21.84325   3.640541   7.281082    
Ar   21.84325   3.640541   10.92162    
Ar   21.84325   3.640541   14.56216    
Ar   21.84325   3.640541   18.20271    
Ar   21.84325   3.640541   21.84325    
Ar   21.84325   3.640541   25.48379    
Ar   21.84325   3.640541   29.12433    
Ar   21.84325   3.640541   32.76487    
Ar   21.84325   7.281082   0.000000    
Ar   21.84325   7.281082   3.640541    
Ar   21.84325   7.281082   7.281082    
Ar   21.84325   7.281082   10.92162    
Ar   21.84325   7.281082   14.56216    
Ar   21.84325   7.281082   18.20271    
Ar   21.84325   7.281082   21.84325    
Ar   21.84325   7.281082   25.48379    
Ar   21.84325   7.281082   29.12433    
Ar   21.84325   7.281082   32.76487    
Ar   21.84325   10.92162   0.000000    
Ar   21.84325   10.92162   3.640541    
Ar   21.84325   10.92162   7.281082    
Ar   21.84325   10.92162   10.92162    
Ar   21.84325   10.92162   14.56216    
Ar   21.84325   10.92162   18.20271    
Ar   21.84325   10.92162   21.84325    
Ar   21.84325   10.92162   25.48379    
Ar   21.84325   10.92162   29.12433    
Ar   21.84325   10.92162   32.76487    
Ar   21.84325   14.56216   0.000000    
Ar   21.84325   14.56216   3.640541    
Ar   21.84325   14.56216   7.281082    
Ar   21.84325   14.56216   10.92162    
Ar   21.84325   14.56216   14.56216    
Ar   21.84325   14.56216   18.20271    
Ar   21.84325   14.56216   21.84325    
Ar   21.84325   14.56216   25.48379    
Ar   21.84325   14.56216   29.12433    
Ar   21.84325   14.56216   32.76487    
Ar   21.84325   18.20271   0.000000    
Ar   21.84325   18.20271   3.640541    
Ar   21.84325   18.20271   7.281082    
Ar   21.84325   18.20271   10.92162    
Ar   21.84325   18.20271   14.56216    
Ar   21.84325   18.20271   18.20271    
Ar   21.84325   18.20271   21.84325    
Ar   21.84325   18.20271   25.48379    
Ar   21.84325   18.20271   29.12433    
Ar   21.84325   18.20271   32.76487    
Ar   21.84325   21.84325   0.000000    
Ar   21.84325   21.84325   3.640541    
Ar   21.84325   21.84325   7.281082    
Ar   21.84325   21.84325   10.92162    
Ar   21.84325   21.84325   14.56216    
Ar   21.84325   21.84325   18.20271    
Ar   21.84325   21.84325   21.84325    
Ar   21.84325   21.84325   25.48379    
Ar   21.84325   21.84325   29.12433    
Ar   21.84325   21.84325   32.76487    
Ar   21.84325   25.48379   0.000000    
Ar   21.84325   25.48379   3.640541    
Ar   21.84325   25.48379   7.281082    
Ar   21.84325   25.48379   10.92162    
Ar   21.84325   25.48379   14.56216    
Ar   21.84325   25.48379   18.20271    
Ar   21.84325   25.48379   21.84325    
Ar   21.84325   25.48379   25.48379    
Ar   21.84325   25.48379   29.12433    
Ar   21.84325   25.48379   32.76487    
Ar   21.84325   29.12433   0.000000    
Ar   21.84325   29.12433   3.640541    
Ar   21.84325   29.12433   7.281082    
Ar   21.84325   29.12433   10.92162    
Ar   21.84325   29.12433   14.56216    
Ar   21.84325   29.12433   18.20271    
Ar   21.84325   29.12433   21.84325    
Ar   21.84325   29.12433   25.48379    
Ar   21.84325   29.12433   29.12433    
Ar   21.84325   29.12433   32.76487    
Ar   21.84325   32.76487   0.000000    
Ar   21.84325   32.76487   3.640541    
Ar   21.84325   32.76487   7.281082    
Ar   21.84325   32.76487   10.92162    
Ar   21.84325   32.76487   14.56216    
Ar   21.84325   32.76487   18.20271    
Ar   21.84325   32.76487   21.84325    
Ar   21.84325   32.76487   25.48379    
Ar   21.84325   32.76487   29.12433    
Ar   21.84325   32.76487   32.76487    
Ar   25.48379   0.000000   0.000000    
Ar   25.48379   0.000000   3.640541    
Ar   25.48379   0.000000   7.281082    
Ar   25.48379   0.000000   10.92162    
Ar   25.48379   0.000000   14.56216    
Ar   25.48379   0.000000   18.20271    
Ar   25.48379   0.000000   21.84325    
Ar   25.48379   0.000000   25.48379    
Ar   25.48379   0.000000   29.12433    
Ar   25.48379   0.000000   32.76487    
Ar   25.48379   3.640541   0.000000    
Ar   25.48379   3.640541   3.640541    
Ar   25.48379   3.640541   7.281082    
Ar   25.48379   3.640541   10.92162    
Ar   25.48379   3.640541   14.56216    
Ar   25.48379   3.640541   18.20271    
Ar   25.48379   3.640541   21.84325    
Ar   25.48379   3.640541   25.48379    
Ar   25.48379   3.640541   29.12433    
Ar   25.48379   3.640541   32.76487    
Ar   25.48379   7.281082   0.000000    
Ar   25.48379   7.281082   3.640541    
Ar   25.48379   7.281082   7.281082    
Ar   25.48379   7.281082   10.92162    
Ar   25.48379   7.281082   14.56216    
Ar   25.48379   7.281082   18.20271    
Ar   25.48379   7.281082   21.84325    
Ar   25.48379   7.281082   25.48379    
Ar   25.48379   7.281082   29.12433    
Ar   25.48379   7.281082   32.76487    
Ar   25.48379   10.92162   0.000000    
Ar   25.48379   10.92162   3.640541    
Ar   25.48379   10.92162   7.281082    
Ar   25.48379   10.92162   10.92162    
Ar   25.48379   10.92162   14.56216    
Ar   25.48379   10.92162   18.20271    
Ar   25.48379   10.92162   21.84325    
Ar   25.48379   10.92162   25.48379    
Ar   25.48379   10.92162   29.12433    
Ar   25.48379   10.92162   32.76487    
Ar   25.48379   14.56216   0.000000    
Ar   25.48379   14.56216   3.640541    
Ar   25.48379   14.56216   7.281082    
Ar   25.48379   14.56216   10.92162    
Ar   25.48379   14.56216   14.56216    
Ar   25.48379   14.56216   18.20271    
Ar   25.48379   14.56216   21.84325    
Ar   25.48379   14.56216   25.48379    
Ar   25.48379   14.56216   29.12433    